! Sonnet Data File
! From: em Version : 18.56
! From Project: E10k_0o1-100lin_nd_nadap
! Data is De-embedded 
! Data File Written: 03/11/2023 11:40:15
!< HDATE 03/11/2023 11:16:36
!< MDATE 03/11/2023 11:16:36
# GHZ S MA R 50.00000
0.010000000000000 0.9999873667821 -0.158608074620
0.020000000000000 0.9999747337169 -0.317215851617
0.030000000000000 0.9999621008360 -0.475823018228
0.040000000000000 0.9999494681794 -0.634429274557
0.050000000000000 0.9999368358135 -0.793034310619
0.060000000000000 0.9999242038064 -0.951637819861
0.070000000000000 0.9999115722213 -1.110239495332
0.080000000000000 0.9998989411276 -1.268839030829
0.090000000000000 0.9998863105863 -1.427436118782
0.100000000000000 0.9998736807008 -1.586030451805
0.110000000000000 0.9998610515250 -1.744621723914
0.120000000000000 0.9998484231481 -1.903209626141
0.130000000000000 0.9998357956419 -2.061793853125
0.140000000000000 0.9998231690901 -2.220374096766
0.150000000000000 0.9998105435483 -2.378950049893
0.160000000000000 0.9997979191157 -2.537521405774
0.170000000000000 0.9997852958587 -2.696087857350
0.180000000000000 0.9997726738817 -2.854649097679
0.190000000000000 0.9997600532447 -3.013204820392
0.200000000000000 0.9997474340340 -3.171754718106
0.210000000000000 0.9997348163320 -3.330298484176
0.220000000000000 0.9997222002129 -3.488835812574
0.230000000000000 0.9997095857654 -3.647366396144
0.240000000000000 0.9996969730625 -3.805889929250
0.250000000000000 0.9996843622086 -3.964406104969
0.260000000000000 0.9996717532647 -4.122914617573
0.270000000000000 0.9996591463258 -4.281415161032
0.280000000000000 0.9996465414696 -4.439907429377
0.290000000000000 0.9996339387733 -4.598391117154
0.300000000000000 0.9996213383295 -4.756865918652
0.310000000000000 0.9996087402059 -4.915331528471
0.320000000000000 0.9995961445125 -5.073787641471
0.330000000000000 0.9995835513170 -5.232233952423
0.340000000000000 0.9995709606988 -5.390670156743
0.350000000000000 0.9995583727502 -5.549095949706
0.360000000000000 0.9995457875536 -5.707511026464
0.370000000000000 0.9995332051940 -5.865915082947
0.380000000000000 0.9995206257576 -6.024307815250
0.390000000000000 0.9995080493222 -6.182688919275
0.400000000000000 0.9994954759660 -6.341058091320
0.410000000000000 0.9994829057959 -6.499415027958
0.420000000000000 0.9994703388668 -6.657759425860
0.430000000000000 0.9994577752817 -6.816090982161
0.440000000000000 0.9994452151187 -6.974409394215
0.450000000000000 0.9994326584772 -7.132714359301
0.460000000000000 0.9994201054156 -7.291005575247
0.470000000000000 0.9994075560484 -7.449282740029
0.480000000000000 0.9993950104083 -7.607545551914
0.490000000000000 0.9993824686402 -7.765793709467
0.500000000000000 0.9993699307970 -7.924026911364
0.510000000000000 0.9993573969687 -8.082244856721
0.520000000000000 0.9993448672401 -8.240447245059
0.530000000000000 0.9993323416950 -8.398633775774
0.540000000000000 0.9993198204200 -8.556804148973
0.550000000000000 0.9993073034898 -8.714958064948
0.560000000000000 0.9992947910016 -8.873095224200
0.570000000000000 0.9992822830226 -9.031215327601
0.580000000000000 0.9992697796526 -9.189318076297
0.590000000000000 0.9992572809629 -9.347403171950
0.600000000000000 0.9992447870480 -9.505470316419
0.610000000000000 0.9992322979675 -9.663519211660
0.620000000000000 0.9992198138561 -9.821549560374
0.630000000000000 0.9992073347494 -9.979561065566
0.640000000000000 0.9991948607478 -10.13755343026
0.650000000000000 0.9991823919441 -10.29552635822
0.660000000000000 0.9991699283986 -10.45347955319
0.670000000000000 0.9991574701939 -10.61141271984
0.680000000000000 0.9991450174530 -10.76932556262
0.690000000000000 0.9991325702278 -10.92721778665
0.700000000000000 0.9991201286009 -11.08508909749
0.710000000000000 0.9991076926655 -11.24293920098
0.720000000000000 0.9990952624914 -11.40076780335
0.730000000000000 0.9990828381702 -11.55857461129
0.740000000000000 0.9990704197864 -11.71635933199
0.750000000000000 0.9990580074264 -11.87412167279
0.760000000000000 0.9990456011553 -12.03186134176
0.770000000000000 0.9990332010765 -12.18957804711
0.780000000000000 0.9990208072392 -12.34727149772
0.790000000000000 0.9990084197629 -12.50494140275
0.800000000000000 0.9989960386966 -12.66258747181
0.810000000000000 0.9989836641489 -12.82020941509
0.820000000000000 0.9989712961825 -12.97780694314
0.830000000000000 0.9989589348836 -13.13537976687
0.840000000000000 0.9989465803409 -13.29292759779
0.850000000000000 0.9989342326370 -13.45045014790
0.860000000000001 0.9989218918027 -13.60794712956
0.870000000000001 0.9989095580021 -13.76541825569
0.880000000000001 0.9988972312609 -13.92286323960
0.890000000000001 0.9988849116869 -14.08028179519
0.900000000000001 0.9988725993357 -14.23767363686
0.910000000000001 0.9988602942930 -14.39503847946
0.920000000000001 0.9988479966537 -14.55237603829
0.930000000000001 0.9988357064866 -14.70968602923
0.940000000000001 0.9988234238563 -14.86696816872
0.950000000000001 0.9988111488473 -15.02422217362
0.960000000000001 0.9987988815651 -15.18144776137
0.970000000000001 0.9987866220800 -15.33864464981
0.980000000000001 0.9987743704471 -15.49581255760
0.990000000000001 0.9987621267686 -15.65295120373
1.000000000000000 0.9987498911131 -15.81006030775
1.010000000000000 0.9987376635687 -15.96713958969
1.020000000000000 0.9987254441710 -16.12418877038
1.030000000000000 0.9987132330500 -16.28120757102
1.040000000000000 0.9987010302773 -16.43819571326
1.050000000000000 0.9986888358892 -16.59515291966
1.060000000000000 0.9986766500297 -16.75207891311
1.070000000000000 0.9986644726802 -16.90897341711
1.080000000000000 0.9986523040249 -17.06583615575
1.090000000000000 0.9986401440564 -17.22266685367
1.100000000000000 0.9986279928816 -17.37946523622
1.110000000000000 0.9986158505979 -17.53623102935
1.120000000000000 0.9986037172502 -17.69296395943
1.130000000000000 0.9985915928870 -17.84966375349
1.140000000000000 0.9985794776655 -18.00633013942
1.150000000000000 0.9985673716005 -18.16296284552
1.160000000000000 0.9985552747798 -18.31956160055
1.170000000000000 0.9985431872723 -18.47612613418
1.180000000000000 0.9985311091675 -18.63265617659
1.190000000000000 0.9985190405388 -18.78915145860
1.200000000000000 0.9985069814450 -18.94561171170
1.210000000000000 0.9984949319409 -19.10203666802
1.220000000000000 0.9984828921490 -19.25842606029
1.230000000000000 0.9984708621280 -19.41477962186
1.240000000000000 0.9984588419285 -19.57109708689
1.250000000000000 0.9984468316598 -19.72737819009
1.260000000000000 0.9984348313518 -19.88362266677
1.270000000000000 0.9984228410889 -20.03983025312
1.280000000000000 0.9984108609412 -20.19600068579
1.290000000000000 0.9983988910103 -20.35213370222
1.300000000000000 0.9983869313417 -20.50822904054
1.310000000000000 0.9983749819942 -20.66428643948
1.320000000000000 0.9983630430930 -20.82030563859
1.330000000000000 0.9983511146236 -20.97628637795
1.340000000000000 0.9983391966957 -21.13222839854
1.350000000000000 0.9983272894029 -21.28813144185
1.360000000000000 0.9983153927996 -21.44399525023
1.370000000000000 0.9983035069753 -21.59981956664
1.380000000000000 0.9982916319563 -21.75560413483
1.390000000000000 0.9982797678390 -21.91134869919
1.400000000000000 0.9982679146928 -22.06705300493
1.410000000000000 0.9982560725739 -22.22271679790
1.420000000000000 0.9982442415559 -22.37833982479
1.430000000000000 0.9982324216841 -22.53392183285
1.440000000000000 0.9982206130604 -22.68946257028
1.450000000000000 0.9982088157299 -22.84496178591
1.460000000000000 0.9981970297723 -23.00041922930
1.470000000000000 0.9981852552694 -23.15583465081
1.480000000000000 0.9981734922408 -23.31120780157
1.490000000000000 0.9981617407998 -23.46653843340
1.500000000000000 0.9981500009691 -23.62182629894
1.510000000000000 0.9981382728550 -23.77707115159
1.520000000000000 0.9981265564973 -23.93227274552
1.530000000000000 0.9981148519825 -24.08743083573
1.540000000000000 0.9981031593282 -24.24254517783
1.550000000000000 0.9980914786536 -24.39761552838
1.560000000000000 0.9980798099867 -24.55264164473
1.570000000000000 0.9980681534249 -24.70762328484
1.580000000000000 0.9980565089777 -24.86256020767
1.590000000000000 0.9980448767418 -25.01745217289
1.600000000000000 0.9980332567939 -25.17229894094
1.610000000000000 0.9980216491837 -25.32710027311
1.620000000000000 0.9980100539479 -25.48185593151
1.630000000000000 0.9979984711662 -25.63656567896
1.640000000000000 0.9979869009314 -25.79122927926
1.650000000000000 0.9979753432729 -25.94584649692
1.660000000000000 0.9979637982150 -26.10041709727
1.670000000000000 0.9979522659046 -26.25494084647
1.680000000000000 0.9979407463290 -26.40941751158
1.690000000000000 0.9979292395837 -26.56384686039
1.700000000000000 0.9979177457232 -26.71822866164
1.710000000000000 0.9979062647979 -26.87256268477
1.720000000000000 0.9978947968438 -27.02684870013
1.730000000000000 0.9978833419830 -27.18108647895
1.740000000000000 0.9978719002268 -27.33527579332
1.750000000000000 0.9978604716437 -27.48941641605
1.760000000000000 0.9978490562896 -27.64350812096
1.770000000000000 0.9978376542238 -27.79755068259
1.780000000000000 0.9978262655002 -27.95154387647
1.790000000000000 0.9978148901635 -28.10548747893
1.800000000000000 0.9978035282896 -28.25938126710
1.810000000000000 0.9977921799201 -28.41322501915
1.820000000000000 0.9977808451106 -28.56701851397
1.830000000000000 0.9977695239539 -28.72076153138
1.840000000000000 0.9977582164598 -28.87445385207
1.850000000000000 0.9977469226756 -29.02809525763
1.860000000000000 0.9977356427024 -29.18168553052
1.870000000000000 0.9977243765588 -29.33522445412
1.880000000000000 0.9977131243143 -29.48871181264
1.890000000000000 0.9977018859699 -29.64214739122
1.900000000000000 0.9976906616678 -29.79553097589
1.910000000000000 0.9976794514031 -29.94886235358
1.920000000000000 0.9976682552606 -30.10214131210
1.930000000000000 0.9976570732470 -30.25536764023
1.940000000000000 0.9976459054591 -30.40854112759
1.950000000000000 0.9976347519173 -30.56166156467
1.960000000000000 0.9976236126844 -30.71472874302
1.970000000000000 0.9976124877987 -30.86774245498
1.980000000000000 0.9976013773396 -31.02070249386
1.990000000000000 0.9975902813091 -31.17360865381
2.000000000000000 0.9975791998045 -31.32646073001
2.010000000000000 0.9975681328555 -31.47925851856
2.020000000000000 0.9975570804993 -31.63200181639
2.030000000000000 0.9975460428156 -31.78469042144
2.040000000000000 0.9975350198110 -31.93732413252
2.050000000000000 0.9975240115610 -32.08990274945
2.060000000000000 0.9975130180921 -32.24242607293
2.070000000000000 0.9975020394679 -32.39489390465
2.080000000000000 0.9974910757332 -32.54730604714
2.090000000000000 0.9974801269381 -32.69966230403
2.100000000000000 0.9974691931013 -32.85196247971
2.110000000000000 0.9974582742986 -33.00420637972
2.120000000000000 0.9974473705536 -33.15639381039
2.130000000000000 0.9974364819392 -33.30852457905
2.140000000000000 0.9974256084842 -33.46059849402
2.150000000000000 0.9974147502115 -33.61261536452
2.160000000000000 0.9974039071999 -33.76457500077
2.170000000000000 0.9973930794722 -33.91647721397
2.180000000000000 0.9973822670671 -34.06832181623
2.190000000000000 0.9973714700503 -34.22010862062
2.200000000000000 0.9973606884219 -34.37183744124
2.210000000000000 0.9973499222711 -34.52350809309
2.220000000000000 0.9973391716185 -34.67512039221
2.230000000000000 0.9973284364869 -34.82667415556
2.240000000000000 0.9973177169503 -34.97816920108
2.250000000000000 0.9973070130254 -35.12960534771
2.260000000000000 0.9972963247668 -35.28098241535
2.270000000000000 0.9972856521980 -35.43230022486
2.280000000000000 0.9972749953850 -35.58355859815
2.290000000000000 0.9972643543289 -35.73475735804
2.299999999999990 0.9972537290964 -35.88589632837
2.309999999999990 0.9972431197074 -36.03697533397
2.319999999999990 0.9972325262216 -36.18799420064
2.329999999999990 0.9972219486597 -36.33895275519
2.339999999999990 0.9972113870567 -36.48985082542
2.349999999999990 0.9972008414663 -36.64068824012
2.359999999999990 0.9971903119043 -36.79146482901
2.369999999999990 0.9971797984265 -36.94218042292
2.379999999999990 0.9971693010482 -37.09283485366
2.389999999999990 0.9971588198153 -37.24342795392
2.399999999999990 0.9971483547726 -37.39395955755
2.409999999999990 0.9971379059347 -37.54442949926
2.419999999999990 0.9971274733607 -37.69483761493
2.429999999999990 0.9971170570444 -37.84518374126
2.439999999999990 0.9971066570589 -37.99546771607
2.449999999999990 0.9970962734151 -38.14568937813
2.459999999999990 0.9970859061407 -38.29584856733
2.469999999999990 0.9970755552887 -38.44594512447
2.479999999999990 0.9970652208886 -38.59597889131
2.489999999999990 0.9970549029583 -38.74594971079
2.499999999999990 0.9970446015295 -38.89585742674
2.509999999999990 0.9970343166358 -39.04570188399
2.519999999999990 0.9970240483162 -39.19548292851
2.529999999999990 0.9970137965886 -39.34520040718
2.539999999999990 0.9970035614824 -39.49485416788
2.549999999999990 0.9969933430479 -39.64444405963
2.559999999999990 0.9969831412932 -39.79396993241
2.569999999999990 0.9969729562487 -39.94343163714
2.579999999999990 0.9969627879470 -40.09282902592
2.589999999999990 0.9969526364116 -40.24216195172
2.599999999999990 0.9969425016754 -40.39143026864
2.609999999999990 0.9969323837611 -40.54063383179
2.619999999999990 0.9969222827036 -40.68977249725
2.629999999999990 0.9969121985172 -40.83884612222
2.639999999999990 0.9969021312369 -40.98785456483
2.649999999999990 0.9968920808866 -41.13679768428
2.659999999999990 0.9968820474826 -41.28567534087
2.669999999999990 0.9968720310630 -41.43448739580
2.679999999999990 0.9968620316537 -41.58323371142
2.689999999999990 0.9968520492605 -41.73191415101
2.699999999999990 0.9968420839217 -41.88052857898
2.709999999999990 0.9968321356588 -42.02907686072
2.719999999999990 0.9968222044869 -42.17755886265
2.729999999999990 0.9968122904420 -42.32597445231
2.739999999999990 0.9968023935350 -42.47432349810
2.749999999999990 0.9967925137927 -42.62260586965
2.759999999999990 0.9967826512343 -42.77082143749
2.769999999999980 0.9967728058885 -42.91897007327
2.779999999999980 0.9967629777717 -43.06705164964
2.789999999999980 0.9967531668961 -43.21506604033
2.799999999999980 0.9967433732927 -43.36301312003
2.809999999999980 0.9967335969786 -43.51089276453
2.819999999999980 0.9967238379644 -43.65870485068
2.829999999999980 0.9967140962769 -43.80644925631
2.839999999999980 0.9967043719458 -43.95412586033
2.849999999999980 0.9966946649629 -44.10173454268
2.859999999999980 0.9966849753714 -44.24927518439
2.869999999999980 0.9966753031861 -44.39674766742
2.879999999999980 0.9966656484124 -44.54415187489
2.889999999999980 0.9966560110696 -44.69148769092
2.899999999999980 0.9966463911716 -44.83875500063
2.909999999999980 0.9966367887440 -44.98595369024
2.919999999999980 0.9966272038001 -45.13308364703
2.929999999999980 0.9966176363514 -45.28014475926
2.939999999999980 0.9966080864115 -45.42713691627
2.949999999999980 0.9965985540027 -45.57406000844
2.959999999999980 0.9965890391376 -45.72091392721
2.969999999999980 0.9965795418212 -45.86769856506
2.979999999999980 0.9965700620711 -46.01441381548
2.989999999999980 0.9965605999130 -46.16105957305
2.999999999999980 0.9965511553435 -46.30763573339
3.009999999999980 0.9965417283896 -46.45414219313
3.019999999999980 0.9965323190482 -46.60057884998
3.029999999999980 0.9965229273476 -46.74694560270
3.039999999999980 0.9965135532953 -46.89324235106
3.049999999999980 0.9965041968853 -47.03946899589
3.059999999999980 0.9964948581422 -47.18562543911
3.069999999999980 0.9964855370821 -47.33171158362
3.079999999999980 0.9964762337080 -47.47772733340
3.089999999999980 0.9964669480285 -47.62367259348
3.099999999999980 0.9964576800465 -47.76954726991
3.109999999999980 0.9964484297934 -47.91535126982
3.119999999999980 0.9964391972645 -48.06108450133
3.129999999999980 0.9964299824624 -48.20674687367
3.139999999999980 0.9964207853960 -48.35233829706
3.149999999999980 0.9964116060819 -48.49785868282
3.159999999999980 0.9964024445259 -48.64330794328
3.169999999999980 0.9963933007354 -48.78868599179
3.179999999999980 0.9963841747214 -48.93399274281
3.189999999999980 0.9963750664736 -49.07922811177
3.199999999999980 0.9963659760035 -49.22439201519
3.209999999999980 0.9963569033274 -49.36948437065
3.219999999999980 0.9963478484476 -49.51450509671
3.229999999999980 0.9963388113607 -49.65945411300
3.239999999999970 0.9963297920790 -49.80433134024
3.249999999999970 0.9963207906072 -49.94913670013
3.259999999999970 0.9963118069463 -50.09387011541
3.269999999999970 0.9963028411012 -50.23853150991
3.279999999999970 0.9962938930721 -50.38312080847
3.289999999999970 0.9962849628616 -50.52763793696
3.299999999999970 0.9962760504864 -50.67208282232
3.309999999999970 0.9962671559372 -50.81645539249
3.319999999999970 0.9962582792124 -50.96075557649
3.329999999999970 0.9962494203205 -51.10498330435
3.339999999999970 0.9962405792576 -51.24913850715
3.349999999999970 0.9962317560347 -51.39322111698
3.359999999999970 0.9962229506423 -51.53723106703
3.369999999999970 0.9962141630900 -51.68116829147
3.379999999999970 0.9962053933649 -51.82503272548
3.389999999999970 0.9961966414749 -51.96882430538
3.399999999999970 0.9961879074208 -52.11254296842
3.409999999999970 0.9961791911926 -52.25618865291
3.419999999999970 0.9961704928125 -52.39976129824
3.429999999999970 0.9961618122568 -52.54326084476
3.439999999999970 0.9961531495254 -52.68668723393
3.449999999999970 0.9961445046234 -52.83004040819
3.459999999999970 0.9961358775458 -52.97332031098
3.469999999999970 0.9961272682900 -53.11652688684
3.479999999999970 0.9961186768541 -53.25966008130
3.489999999999970 0.9961101032324 -53.40271984095
3.499999999999970 0.9961015474187 -53.54570611335
3.509999999999970 0.9960930094194 -53.68861884712
3.519999999999970 0.9960844892238 -53.83145799192
3.529999999999970 0.9960759868199 -53.97422349840
3.539999999999970 0.9960675022153 -54.11691531827
3.549999999999970 0.9960590353912 -54.25953340424
3.559999999999970 0.9960505863497 -54.40207771005
3.569999999999970 0.9960421550904 -54.54454819043
3.579999999999970 0.9960337416027 -54.68694480121
3.589999999999970 0.9960253458711 -54.82926749914
3.599999999999970 0.9960169679067 -54.97151624207
3.609999999999970 0.9960086076965 -55.11369098884
3.619999999999970 0.9960002652220 -55.25579169928
3.629999999999970 0.9959919404838 -55.39781833428
3.639999999999970 0.9959836334661 -55.53977085567
3.649999999999970 0.9959753441706 -55.68164922640
3.659999999999970 0.9959670725877 -55.82345341038
3.669999999999970 0.9959588187040 -55.96518337250
3.679999999999970 0.9959505825139 -56.10683907872
3.689999999999970 0.9959423640055 -56.24842049597
3.699999999999970 0.9959341631740 -56.38992759221
3.709999999999960 0.9959259800028 -56.53136033639
3.719999999999960 0.9959178144810 -56.67271869849
3.729999999999960 0.9959096666002 -56.81400264948
3.739999999999960 0.9959015363565 -56.95521216133
3.749999999999960 0.9958934237290 -57.09634720704
3.759999999999960 0.9958853287079 -57.23740776057
3.769999999999960 0.9958772512872 -57.37839379692
3.779999999999960 0.9958691914527 -57.51930529207
3.789999999999960 0.9958611491791 -57.66014222301
3.799999999999960 0.9958531244790 -57.80090456775
3.809999999999960 0.9958451173113 -57.94159230522
3.819999999999960 0.9958371276840 -58.08220541543
3.829999999999960 0.9958291555710 -58.22274387935
3.839999999999960 0.9958212009665 -58.36320767893
3.849999999999960 0.9958132638546 -58.50359679716
3.859999999999960 0.9958053442220 -58.64391121795
3.869999999999960 0.9957974420513 -58.78415092627
3.879999999999960 0.9957895573222 -58.92431590805
3.889999999999960 0.9957816900330 -59.06440615018
3.899999999999960 0.9957738401584 -59.20442164059
3.909999999999960 0.9957660076760 -59.34436236816
3.919999999999960 0.9957581925882 -59.48422832275
3.929999999999960 0.9957503948709 -59.62401949523
3.939999999999960 0.9957426144921 -59.76373587743
3.949999999999960 0.9957348514612 -59.90337746218
3.959999999999960 0.9957271057471 -60.04294424325
3.969999999999960 0.9957193773310 -60.18243621544
3.979999999999960 0.9957116661946 -60.32185337447
3.989999999999960 0.9957039723351 -60.46119571709
3.999999999999960 0.9956962957141 -60.60046324102
4.009999999999960 0.9956886363247 -60.73965594487
4.019999999999960 0.9956809941402 -60.87877382832
4.029999999999960 0.9956733691552 -61.01781689200
4.039999999999960 0.9956657613398 -61.15678513747
4.049999999999960 0.9956581706682 -61.29567856726
4.059999999999961 0.9956505971382 -61.43449718492
4.069999999999960 0.9956430407185 -61.57324099491
4.079999999999960 0.9956355013877 -61.71191000267
4.089999999999960 0.9956279791341 -61.85050421463
4.099999999999961 0.9956204739262 -61.98902363813
4.109999999999960 0.9956129857565 -62.12746828148
4.119999999999960 0.9956055145852 -62.26583815400
4.129999999999960 0.9955980604087 -62.40413326590
4.139999999999961 0.9955906231968 -62.54235362837
4.149999999999960 0.9955832029332 -62.68049925357
4.159999999999960 0.9955757995817 -62.81857015460
4.169999999999960 0.9955684131314 -62.95656634549
4.179999999999961 0.9955610435570 -63.09448784126
4.189999999999960 0.9955536908437 -63.23233465784
4.199999999999950 0.9955463549550 -63.37010681213
4.209999999999950 0.9955390358718 -63.50780432198
4.219999999999950 0.9955317335694 -63.64542720616
4.229999999999950 0.9955244480212 -63.78297548437
4.239999999999950 0.9955171792196 -63.92044917730
4.249999999999950 0.9955099271207 -64.05784830654
4.259999999999950 0.9955026917119 -64.19517289463
4.269999999999950 0.9954954729566 -64.33242296506
4.279999999999951 0.9954882708396 -64.46959854225
4.289999999999950 0.9954810853362 -64.60669965153
4.299999999999951 0.9954739164134 -64.74372631917
4.309999999999951 0.9954667640502 -64.88067857238
4.319999999999951 0.9954596282093 -65.01755643931
4.329999999999950 0.9954525088882 -65.15435994902
4.339999999999951 0.9954454060395 -65.29108913149
4.349999999999951 0.9954383196475 -65.42774401764
4.359999999999951 0.9954312496789 -65.56432463932
4.369999999999950 0.9954241961140 -65.70083102926
4.379999999999951 0.9954171589090 -65.83726322115
4.389999999999951 0.9954101380559 -65.97362124962
4.399999999999951 0.9954031335173 -66.10990515013
4.409999999999950 0.9953961452573 -66.24611495915
4.419999999999951 0.9953891732664 -66.38225071401
4.429999999999951 0.9953822175021 -66.51831245296
4.439999999999951 0.9953752779311 -66.65430021518
4.449999999999950 0.9953683545515 -66.79021404075
4.459999999999951 0.9953614473019 -66.92605397063
4.469999999999951 0.9953545561737 -67.06182004675
4.479999999999951 0.9953476811177 -67.19751231187
4.489999999999950 0.9953408221271 -67.33313080971
4.499999999999950 0.9953339791499 -67.46867558486
4.509999999999951 0.9953271521717 -67.60414668283
4.519999999999951 0.9953203411605 -67.73954415000
4.529999999999951 0.9953135460815 -67.87486803370
4.539999999999950 0.9953067669053 -68.01011838210
4.549999999999951 0.9953000035914 -68.14529524429
4.559999999999951 0.9952932561213 -68.28039867026
4.569999999999951 0.9952865244657 -68.41542871088
4.579999999999950 0.9952798085720 -68.55038541789
4.589999999999951 0.9952731084284 -68.68526884397
4.599999999999951 0.9952664240080 -68.82007904265
4.609999999999951 0.9952597552507 -68.95481606831
4.619999999999950 0.9952531021522 -69.08947997631
4.629999999999951 0.9952464646658 -69.22407082280
4.639999999999951 0.9952398427522 -69.35858866486
4.649999999999951 0.9952332363978 -69.49303356043
4.659999999999941 0.9952266455479 -69.62740556833
4.669999999999940 0.9952200701874 -69.76170474826
4.679999999999940 0.9952135102716 -69.89593116080
4.689999999999940 0.9952069657696 -70.03008486739
4.699999999999940 0.9952004366427 -70.16416593034
4.709999999999940 0.9951939228576 -70.29817441284
4.719999999999940 0.9951874243896 -70.43211037893
4.729999999999940 0.9951809411951 -70.56597389356
4.739999999999940 0.9951744732366 -70.69976502250
4.749999999999940 0.9951680204978 -70.83348383239
4.759999999999940 0.9951615829230 -70.96713039073
4.769999999999940 0.9951551604786 -71.10070476593
4.779999999999940 0.9951487531328 -71.23420702720
4.789999999999941 0.9951423608560 -71.36763724463
4.799999999999940 0.9951359836013 -71.50099548915
4.809999999999940 0.9951296213438 -71.63428183257
4.819999999999940 0.9951232740329 -71.76749634752
4.829999999999941 0.9951169416489 -71.90063910754
4.839999999999940 0.9951106241390 -72.03371018696
4.849999999999940 0.9951043214707 -72.16670966096
4.859999999999940 0.9950980336114 -72.29963760563
4.869999999999941 0.9950917605325 -72.43249409783
4.879999999999940 0.9950855021733 -72.56527921530
4.889999999999940 0.9950792585149 -72.69799303661
4.899999999999940 0.9950730295128 -72.83063564120
4.909999999999941 0.9950668151277 -72.96320710931
4.919999999999940 0.9950606153289 -73.09570752205
4.929999999999940 0.9950544300649 -73.22813696134
4.939999999999940 0.9950482593126 -73.36049550995
4.949999999999941 0.9950421030208 -73.49278325147
4.959999999999940 0.9950359611561 -73.62500027035
4.969999999999940 0.9950298336806 -73.75714665182
4.979999999999940 0.9950237205505 -73.88922248202
4.989999999999940 0.9950176217268 -74.02122784783
4.999999999999940 0.9950115371775 -74.15316283698
5.009999999999940 0.9950054668575 -74.28502753807
5.019999999999940 0.9949994107207 -74.41682204049
5.029999999999940 0.9949933687356 -74.54854643444
5.039999999999941 0.9949873408579 -74.68020081094
5.049999999999940 0.9949813270581 -74.81178526186
5.059999999999940 0.9949753272822 -74.94329987985
5.069999999999940 0.9949693414899 -75.07474475842
5.079999999999941 0.9949633696491 -75.20611999185
5.089999999999940 0.9949574117072 -75.33742567525
5.099999999999940 0.9949514676322 -75.46866190455
5.109999999999940 0.9949455373820 -75.59982877647
5.119999999999941 0.9949396209158 -75.73092638855
5.129999999999940 0.9949337181891 -75.86195483914
5.139999999999940 0.9949278291599 -75.99291422740
5.149999999999931 0.9949219537859 -76.12380465327
5.159999999999931 0.9949160920273 -76.25462621754
5.169999999999931 0.9949102438361 -76.38537902173
5.179999999999930 0.9949044091847 -76.51606316823
5.189999999999931 0.9948985880125 -76.64667876019
5.199999999999931 0.9948927802850 -76.77722590157
5.209999999999931 0.9948869859583 -76.90770469713
5.219999999999930 0.9948812049926 -77.03811525240
5.229999999999931 0.9948754373396 -77.16845767372
5.239999999999931 0.9948696829581 -77.29873206824
5.249999999999931 0.9948639418065 -77.42893854387
5.259999999999931 0.9948582138383 -77.55907720932
5.269999999999930 0.9948524990108 -77.68914817409
5.279999999999931 0.9948467972769 -77.81915154848
5.289999999999931 0.9948411086065 -77.94908744354
5.299999999999931 0.9948354329347 -78.07895597114
5.309999999999930 0.9948297702266 -78.20875724390
5.319999999999931 0.9948241204462 -78.33849137525
5.329999999999931 0.9948184835358 -78.46815847939
5.339999999999931 0.9948128594563 -78.59775867129
5.349999999999930 0.9948072481586 -78.72729206670
5.359999999999931 0.9948016496043 -78.85675878214
5.369999999999931 0.9947960637462 -78.98615893494
5.379999999999931 0.9947904905390 -79.11549264317
5.389999999999930 0.9947849299338 -79.24476002566
5.399999999999931 0.9947793818918 -79.37396120204
5.409999999999931 0.9947738463581 -79.50309629271
5.419999999999931 0.9947683232929 -79.63216541880
5.429999999999930 0.9947628126523 -79.76116870227
5.439999999999931 0.9947573143801 -79.89010626578
5.449999999999931 0.9947518284404 -80.01897823279
5.459999999999931 0.9947463547818 -80.14778472753
5.469999999999930 0.9947408933601 -80.27652587496
5.479999999999931 0.9947354441273 -80.40520180086
5.489999999999931 0.9947300070367 -80.53381263169
5.499999999999931 0.9947245820369 -80.66235849473
5.509999999999931 0.9947191690907 -80.79083951798
5.519999999999930 0.9947137681454 -80.91925583023
5.529999999999931 0.9947083791487 -81.04760756100
5.539999999999931 0.9947030020597 -81.17589484057
5.549999999999931 0.9946976368298 -81.30411779998
5.559999999999930 0.9946922834082 -81.43227657100
5.569999999999931 0.9946869417537 -81.56037128619
5.579999999999931 0.9946816118111 -81.68840207883
5.589999999999931 0.9946762935334 -81.81636908293
5.599999999999921 0.9946709868745 -81.94427243330
5.609999999999920 0.9946656917885 -82.07211226544
5.619999999999920 0.9946604082237 -82.19988871565
5.629999999999920 0.9946551361271 -82.32760192092
5.639999999999921 0.9946498754599 -82.45525201902
5.649999999999920 0.9946446261639 -82.58283914845
5.659999999999920 0.9946393881957 -82.71036344843
5.669999999999920 0.9946341615040 -82.83782505897
5.679999999999921 0.9946289460379 -82.96522412077
5.689999999999920 0.9946237417531 -83.09256077529
5.699999999999920 0.9946185485974 -83.21983516472
5.709999999999920 0.9946133665205 -83.34704743198
5.719999999999920 0.9946081954735 -83.47419772074
5.729999999999920 0.9946030354037 -83.60128617540
5.739999999999920 0.9945978862638 -83.72831294108
5.749999999999920 0.9945927480066 -83.85527816364
5.759999999999920 0.9945876205764 -83.98218198965
5.769999999999921 0.9945825039256 -84.10902456646
5.779999999999920 0.9945773980022 -84.23580604210
5.789999999999920 0.9945723027610 -84.36252656534
5.799999999999920 0.9945672181402 -84.48918628570
5.809999999999921 0.9945621441022 -84.61578535339
5.819999999999920 0.9945570805889 -84.74232391936
5.829999999999920 0.9945520275469 -84.86880213529
5.839999999999920 0.9945469849297 -84.99522015359
5.849999999999921 0.9945419526854 -85.12157812736
5.859999999999920 0.9945369307601 -85.24787621046
5.869999999999920 0.9945319191059 -85.37411455744
5.879999999999920 0.9945269176687 -85.50029332359
5.889999999999921 0.9945219263963 -85.62641266491
5.899999999999920 0.9945169452392 -85.75247273813
5.909999999999920 0.9945119741456 -85.87847370063
5.919999999999920 0.9945070130577 -86.00441571062
5.929999999999921 0.9945020619325 -86.13029892696
5.939999999999920 0.9944971207085 -86.25612350921
5.949999999999920 0.9944921893396 -86.38188961769