! Sonnet Data File
! From: em Version : 18.56
! From Project: F10k_0o1-100lin_nd_nadap
! Data is De-embedded 
! Data File Written: 03/10/2023 09:17:25
!< HDATE 03/10/2023 03:31:42
!< MDATE 03/10/2023 03:31:42
# GHZ S MA R 50.00000
0.010000000000000 0.9999694406530 -0.380178967562
0.020000000000000 0.9999388830643 -0.760352683573
0.030000000000000 0.9999083282387 -1.140515870524
0.040000000000000 0.9998777774725 -1.520663242961
0.050000000000000 0.9998472320528 -1.900789523214
0.060000000000000 0.9998166932570 -2.280889427661
0.070000000000000 0.9997861624835 -2.660957674238
0.080000000000000 0.9997556410002 -3.040988986766
0.090000000000000 0.9997251301667 -3.420978090175
0.100000000000000 0.9996946313744 -3.800919716045
0.110000000000000 0.9996641459895 -4.180808594982
0.120000000000000 0.9996336753564 -4.560639469481
0.130000000000000 0.9996032208609 -4.940407083451
0.140000000000000 0.9995727838826 -5.320106188808
0.150000000000000 0.9995423657771 -5.699731544474
0.160000000000000 0.9995119679277 -6.079277916629
0.170000000000000 0.9994815917227 -6.458740079730
0.180000000000000 0.9994512385235 -6.838112818261
0.190000000000000 0.9994209097238 -7.217390923413
0.200000000000000 0.9993906066811 -7.596569198717
0.210000000000000 0.9993603307769 -7.975642456638
0.220000000000000 0.9993300833638 -8.354605522056
0.230000000000000 0.9992998658148 -8.733453230110
0.240000000000000 0.9992696794964 -9.112180428780
0.250000000000000 0.9992395257824 -9.490781977859
0.260000000000000 0.9992094060100 -9.869252751370
0.270000000000000 0.9991793215269 -10.24758763665
0.280000000000000 0.9991492737045 -10.62578153517
0.290000000000000 0.9991192638598 -11.00382936253
0.300000000000000 0.9990892933284 -11.38172605095
0.310000000000000 0.9990593634439 -11.75946654722
0.320000000000000 0.9990294755524 -12.13704581502
0.330000000000000 0.9989996309546 -12.51445883486
0.340000000000000 0.9989698309497 -12.89170060462
0.350000000000000 0.9989400768858 -13.26876613951
0.360000000000000 0.9989103700335 -13.64565047368
0.370000000000000 0.9988807116891 -14.02234865948
0.380000000000000 0.9988511031508 -14.39885576883
0.390000000000000 0.9988215456763 -14.77516689326
0.400000000000000 0.9987920405421 -15.15127714498
0.410000000000000 0.9987625890153 -15.52718165649
0.420000000000000 0.9987331923454 -15.90287558141
0.430000000000000 0.9987038517729 -16.27835409496
0.440000000000000 0.9986745685497 -16.65361239517
0.450000000000000 0.9986453438990 -17.02864570159
0.460000000000000 0.9986161790333 -17.40344925747
0.470000000000000 0.9985870751594 -17.77801832915
0.480000000000000 0.9985580334788 -18.15234820696
0.490000000000000 0.9985290552076 -18.52643420522
0.500000000000000 0.9985001414890 -18.90027166348
0.510000000000000 0.9984712935221 -19.27385594596
0.520000000000000 0.9984425124637 -19.64718244263
0.530000000000000 0.9984137994392 -20.02024656932
0.540000000000000 0.9983851556173 -20.39304376804
0.550000000000000 0.9983565821112 -20.76556950777
0.560000000000000 0.9983280800554 -21.13781928489
0.570000000000000 0.9982996505298 -21.50978862237
0.580000000000000 0.9982712946544 -21.88147307201
0.590000000000000 0.9982430134971 -22.25286821320
0.600000000000000 0.9982148081467 -22.62396965447
0.610000000000000 0.9981866796496 -22.99477303272
0.620000000000000 0.9981586290758 -23.36527401466
0.630000000000000 0.9981306574554 -23.73546829624
0.640000000000000 0.9981027658049 -24.10535160394
0.650000000000000 0.9980749551654 -24.47491969408
0.660000000000000 0.9980472265073 -24.84416835362
0.670000000000000 0.9980195808040 -25.21309340102
0.680000000000000 0.9979920191034 -25.58169068514
0.690000000000000 0.9979645423226 -25.94995608749
0.700000000000000 0.9979371514228 -26.31788552035
0.710000000000000 0.9979098473516 -26.68547492915
0.720000000000000 0.9978826310096 -27.05272029098
0.730000000000000 0.9978555033526 -27.41961761625
0.740000000000000 0.9978284652408 -27.78616294806
0.750000000000000 0.9978015175676 -28.15235236286
0.760000000000000 0.9977746612638 -28.51818197060
0.770000000000000 0.9977478971101 -28.88364791479
0.780000000000000 0.9977212260163 -29.24874637346
0.790000000000000 0.9976946487780 -29.61347355848
0.800000000000000 0.9976681662131 -29.97782571628
0.810000000000000 0.9976417791757 -30.34179912819
0.820000000000000 0.9976154884047 -30.70539011018
0.830000000000000 0.9975892947205 -31.06859501354
0.840000000000000 0.9975631988898 -31.43141022493
0.850000000000000 0.9975372016553 -31.79383216630
0.860000000000001 0.9975113037183 -32.15585729557
0.870000000000001 0.9974855058776 -32.51748210650
0.880000000000001 0.9974598088307 -32.87870312880
0.890000000000001 0.9974342132154 -33.23951692864
0.900000000000001 0.9974087198032 -33.59992010843
0.910000000000001 0.9973833292084 -33.95990930730
0.920000000000001 0.9973580420848 -34.31948120096
0.930000000000001 0.9973328591053 -34.67863250198
0.940000000000001 0.9973077808821 -35.03735996000
0.950000000000001 0.9972828079731 -35.39566036183
0.960000000000001 0.9972579411168 -35.75353053133
0.970000000000001 0.9972331808099 -36.11096733003
0.980000000000001 0.9972085276474 -36.46796765669
0.990000000000001 0.9971839821684 -36.82452844761
1.000000000000000 0.9971595449426 -37.18064667690
1.010000000000000 0.9971352164944 -37.53631935646
1.020000000000000 0.9971109973208 -37.89154353594
1.030000000000000 0.9970868879568 -38.24631630296
1.040000000000000 0.9970628889079 -38.60063478300
1.050000000000000 0.9970390006028 -38.95449613999
1.060000000000000 0.9970152235142 -39.30789757533
1.070000000000000 0.9969915581185 -39.66083632936
1.080000000000000 0.9969680048482 -40.01330968004
1.090000000000000 0.9969445640932 -40.36531494384
1.100000000000000 0.9969212362900 -40.71684947556
1.110000000000000 0.9968980218555 -41.06791066802
1.120000000000000 0.9968749210674 -41.41849595287
1.130000000000000 0.9968519344147 -41.76860279981
1.140000000000000 0.9968290621751 -42.11822871678
1.150000000000000 0.9968063047330 -42.46737125053
1.160000000000000 0.9967836624134 -42.81602798577
1.170000000000000 0.9967611354818 -43.16419654588
1.180000000000000 0.9967387242895 -43.51187459247
1.190000000000000 0.9967164291315 -43.85905982552
1.200000000000000 0.9966942502269 -44.20574998323
1.210000000000000 0.9966721878203 -44.55194284231
1.220000000000000 0.9966502422807 -44.89763621744
1.230000000000000 0.9966284137568 -45.24282796184
1.240000000000000 0.9966067024824 -45.58751596676
1.250000000000000 0.9965851086923 -45.93169816159
1.260000000000000 0.9965636325190 -46.27537251374
1.270000000000000 0.9965422742260 -46.61853702860
1.280000000000000 0.9965210339079 -46.96118974995
1.290000000000000 0.9964999118041 -47.30332875881
1.300000000000000 0.9964789079934 -47.64495217454
1.310000000000000 0.9964580226680 -47.98605815391
1.320000000000000 0.9964372559100 -48.32664489151
1.330000000000000 0.9964166078536 -48.66671061967
1.340000000000000 0.9963960784994 -49.00625360772
1.350000000000000 0.9963756680858 -49.34527216286
1.360000000000000 0.9963553766388 -49.68376462933
1.370000000000000 0.9963352041968 -50.02172938864
1.380000000000000 0.9963151508279 -50.35916485937
1.390000000000000 0.9962952165587 -50.69606949691
1.400000000000000 0.9962754014399 -51.03244179381
1.410000000000000 0.9962557054541 -51.36828027908
1.420000000000000 0.9962361286434 -51.70358351848
1.430000000000000 0.9962166709827 -52.03835011416
1.440000000000000 0.9961973324410 -52.37257870466
1.450000000000000 0.9961781130024 -52.70626796476
1.460000000000000 0.9961590126620 -53.03941660531
1.470000000000000 0.9961400313289 -53.37202337304
1.480000000000000 0.9961211689337 -53.70408705050
1.490000000000000 0.9961024254392 -54.03560645595
1.500000000000000 0.9960838007901 -54.36658044299
1.510000000000000 0.9960652948653 -54.69700790069
1.520000000000000 0.9960469075466 -55.02688775330
1.530000000000000 0.9960286387113 -55.35621895983
1.540000000000000 0.9960104883116 -55.68500051456
1.550000000000000 0.9959924561521 -56.01323144618
1.560000000000000 0.9959745420980 -56.34091081792
1.570000000000000 0.9959567460427 -56.66803772742
1.580000000000000 0.9959390677808 -56.99461130641
1.590000000000000 0.9959215070985 -57.32063072078
1.600000000000000 0.9959040639585 -57.64609516998
1.610000000000000 0.9958867380429 -57.97100388724
1.620000000000000 0.9958695292488 -58.29535613940
1.630000000000000 0.9958524373128 -58.61915122620
1.640000000000000 0.9958354620577 -58.94238848064
1.650000000000000 0.9958186032230 -59.26506726863
1.660000000000000 0.9958018605692 -59.58718698876
1.670000000000000 0.9957852339065 -59.90874707199
1.680000000000000 0.9957687229362 -60.22974698172
1.690000000000000 0.9957523274807 -60.55018621339
1.700000000000000 0.9957360472180 -60.87006429424
1.710000000000000 0.9957198818570 -61.18938078331
1.720000000000000 0.9957038311459 -61.50813527120
1.730000000000000 0.9956878947814 -61.82632737953
1.740000000000000 0.9956720724993 -62.14395676133
1.750000000000000 0.9956563639756 -62.46102310016
1.760000000000000 0.9956407688905 -62.77752611048
1.770000000000000 0.9956252869506 -63.09346553705
1.780000000000000 0.9956099178104 -63.40884115494
1.790000000000000 0.9955946611256 -63.72365276920
1.800000000000000 0.9955795165630 -64.03790021466
1.810000000000000 0.9955644838169 -64.35158335586
1.820000000000000 0.9955495624985 -64.66470208656
1.830000000000000 0.9955347522551 -64.97725632964
1.840000000000000 0.9955200527505 -65.28924603707
1.850000000000000 0.9955054635386 -65.60067118943
1.860000000000000 0.9954909843268 -65.91153179590
1.870000000000000 0.9954766146744 -66.22182789369
1.880000000000000 0.9954623542125 -66.53155954825
1.890000000000000 0.9954482024811 -66.84072685286
1.900000000000000 0.9954341592116 -67.14932992838
1.910000000000000 0.9954202238916 -67.45736892291
1.920000000000000 0.9954063961472 -67.76484401184
1.930000000000000 0.9953926755324 -68.07175539751
1.940000000000000 0.9953790616528 -68.37810330881
1.950000000000000 0.9953655540697 -68.68388800133
1.960000000000000 0.9953521523378 -68.98910975679
1.970000000000000 0.9953388560014 -69.29376888281
1.980000000000000 0.9953256646681 -69.59786571303
1.990000000000000 0.9953125778323 -69.90140060667
2.000000000000000 0.9952995950665 -70.20437394797
2.010000000000000 0.9952867159041 -70.50678614675
2.020000000000000 0.9952739399055 -70.80863763742
2.030000000000000 0.9952612665576 -71.10992887919
2.040000000000000 0.9952486954225 -71.41066035561
2.050000000000000 0.9952362260098 -71.71083257456
2.060000000000000 0.9952238578397 -72.01044606796
2.070000000000000 0.9952115904126 -72.30950139133
2.080000000000000 0.9951994232673 -72.60799912386
2.090000000000000 0.9951873559077 -72.90593986800
2.100000000000000 0.9951753877970 -73.20332424937
2.110000000000000 0.9951635184774 -73.50015291650
2.120000000000000 0.9951517474136 -73.79642654039
2.130000000000000 0.9951400741392 -74.09214581464
2.140000000000000 0.9951284981167 -74.38731145502
2.150000000000000 0.9951170188520 -74.68192419925
2.160000000000000 0.9951056357712 -74.97598480687
2.170000000000000 0.9950943484345 -75.26949405885
2.180000000000000 0.9950831562374 -75.56245275770
2.190000000000000 0.9950720587091 -75.85486172687
2.200000000000000 0.9950610552913 -76.14672181073
2.210000000000000 0.9950501454814 -76.43803387434
2.220000000000000 0.9950393287099 -76.72879880332
2.230000000000000 0.9950286044533 -77.01901750332
2.240000000000000 0.9950179721816 -77.30869090014
2.250000000000000 0.9950074313283 -77.59781993954
2.260000000000000 0.9949969813775 -77.88640558658
2.270000000000000 0.9949866217515 -78.17444882593
2.280000000000000 0.9949763519466 -78.46195066132
2.290000000000000 0.9949661713643 -78.74891211562
2.299999999999990 0.9949560794631 -79.03533423022
2.309999999999990 0.9949460756974 -79.32121806529
2.319999999999990 0.9949361594936 -79.60656469925
2.329999999999990 0.9949263303171 -79.89137522861
2.339999999999990 0.9949165875678 -80.17565076786
2.349999999999990 0.9949069307248 -80.45939244930
2.359999999999990 0.9948973591970 -80.74260142264
2.369999999999990 0.9948878724321 -81.02527885502
2.379999999999990 0.9948784698445 -81.30742593067
2.389999999999990 0.9948691508874 -81.58904385075
2.399999999999990 0.9948599149722 -81.87013383311
2.409999999999990 0.9948507615453 -82.15069711233
2.419999999999990 0.9948416900196 -82.43073493904
2.429999999999990 0.9948326998249 -82.71024858030
2.439999999999990 0.9948237903770 -82.98923931893
2.449999999999990 0.9948149611163 -83.26770845365
2.459999999999990 0.9948062114351 -83.54565729871
2.469999999999990 0.9947975407955 -83.82308718371
2.479999999999990 0.9947889485832 -84.09999945360
2.489999999999990 0.9947804342493 -84.37639546817
2.499999999999990 0.9947719971903 -84.65227660216
2.509999999999990 0.9947636368284 -84.92764424498
2.519999999999990 0.9947553525956 -85.20249980041
2.529999999999990 0.9947471438716 -85.47684468660
2.539999999999990 0.9947390101216 -85.75068033581
2.549999999999990 0.9947309507409 -86.02400819430
2.559999999999990 0.9947229651354 -86.29682972185
2.569999999999990 0.9947150527195 -86.56914639223
2.579999999999990 0.9947072129412 -86.84095969228
2.589999999999990 0.9946994451649 -87.11227112229
2.599999999999990 0.9946917488425 -87.38308219544
2.609999999999990 0.9946841233886 -87.65339443804
2.619999999999990 0.9946765681949 -87.92320938910
2.629999999999990 0.9946690826948 -88.19252859997
2.639999999999990 0.9946616662796 -88.46135363482
2.649999999999990 0.9946543183892 -88.72968606968
2.659999999999990 0.9946470384232 -88.99752749302
2.669999999999990 0.9946398257940 -89.26487950494
2.679999999999990 0.9946326799335 -89.53174371763
2.689999999999990 0.9946256002269 -89.79812175462
2.699999999999990 0.9946185861018 -90.06401525104
2.709999999999990 0.9946116369886 -90.32942585345
2.719999999999990 0.9946047522779 -90.59435521936
2.729999999999990 0.9945979314013 -90.85880501749
2.739999999999990 0.9945911737577 -91.12277692740
2.749999999999990 0.9945844787764 -91.38627263918
2.759999999999990 0.9945778458737 -91.64929385377
2.769999999999980 0.9945712744578 -91.91184228241
2.779999999999980 0.9945647639520 -92.17391964668
2.789999999999980 0.9945583137752 -92.43552767833
2.799999999999980 0.9945519233347 -92.69666811908
2.809999999999980 0.9945455920622 -92.95734272061
2.819999999999980 0.9945393193609 -93.21755324426
2.829999999999980 0.9945331046618 -93.47730146112
2.839999999999980 0.9945269473815 -93.73658915167
2.849999999999980 0.9945208469428 -93.99541810568
2.859999999999980 0.9945148027661 -94.25379012233
2.869999999999980 0.9945088142789 -94.51170700980
2.879999999999980 0.9945028809003 -94.76917058517
2.889999999999980 0.9944970020417 -95.02618267462
2.899999999999980 0.9944911771360 -95.28274511284
2.909999999999980 0.9944854056095 -95.53885974313
2.919999999999980 0.9944796868971 -95.79452841736
2.929999999999980 0.9944740204092 -96.04975299582
2.939999999999980 0.9944684055832 -96.30453534698
2.949999999999980 0.9944628418326 -96.55887734746
2.959999999999980 0.9944573286096 -96.81278088201
2.969999999999980 0.9944518653228 -97.06624784306
2.979999999999980 0.9944464514239 -97.31928013115
2.989999999999980 0.9944410863265 -97.57187965444
2.999999999999980 0.9944357694714 -97.82404832848
3.009999999999980 0.9944305002909 -98.07578807658
3.019999999999980 0.9944252782123 -98.32710082930
3.029999999999980 0.9944201026841 -98.57798852451
3.039999999999980 0.9944149731456 -98.82845310730
3.049999999999980 0.9944098890150 -99.07849652993
3.059999999999980 0.9944048497395 -99.32812075143
3.069999999999980 0.9943998547719 -99.57732773780
3.079999999999980 0.9943949035300 -99.82611946206
3.089999999999980 0.9943899954708 -100.0744979037
3.099999999999980 0.9943851300243 -100.3224650489
3.109999999999980 0.9943803066443 -100.5700228905
3.119999999999980 0.9943755247809 -100.8171734274
3.129999999999980 0.9943707838649 -101.0639186654
3.139999999999980 0.9943660833543 -101.3102606162
3.149999999999980 0.9943614226827 -101.5562012977
3.159999999999980 0.9943568013183 -101.8017427342
3.169999999999980 0.9943522186927 -102.0468869555
3.179999999999980 0.9943476742781 -102.2916359979
3.189999999999980 0.9943431675086 -102.5359919033
3.199999999999980 0.9943386978379 -102.7799567193
3.209999999999980 0.9943342647206 -103.0235324994
3.219999999999980 0.9943298676215 -103.2667213026
3.229999999999980 0.9943255059934 -103.5095251939
3.239999999999970 0.9943211792957 -103.7519462431
3.249999999999970 0.9943168869763 -103.9939865259
3.259999999999970 0.9943126285029 -104.2356481233
3.269999999999970 0.9943084033314 -104.4769331215
3.279999999999970 0.9943042109271 -104.7178436120
3.289999999999970 0.9943000507633 -104.9583816916
3.299999999999970 0.9942959222880 -105.1985494619
3.309999999999970 0.9942918249724 -105.4383490297
3.319999999999970 0.9942877582818 -105.6777825070
3.329999999999970 0.9942837216821 -105.9168520106
3.339999999999970 0.9942797146439 -106.1555596618
3.349999999999970 0.9942757366365 -106.3939075873
3.359999999999970 0.9942717871303 -106.6318979182
3.369999999999970 0.9942678655951 -106.8695327905
3.379999999999970 0.9942639715054 -107.1068143446
3.389999999999970 0.9942601043301 -107.3437447261
3.399999999999970 0.9942562635491 -107.5803260844
3.409999999999970 0.9942524486372 -107.8165605739
3.419999999999970 0.9942486590717 -108.0524503535
3.429999999999970 0.9942448943228 -108.2879975861
3.439999999999970 0.9942411538849 -108.5232044395
3.449999999999970 0.9942374372202 -108.7580730856
3.459999999999970 0.9942337438132 -108.9926057005
3.469999999999970 0.9942300731595 -109.2268044647
3.479999999999970 0.9942264247245 -109.4606715632
3.489999999999970 0.9942227980026 -109.6942091845
3.499999999999970 0.9942191924726 -109.9274195219
3.509999999999970 0.9942156076209 -110.1603047724
3.519999999999970 0.9942120429441 -110.3928671374
3.529999999999970 0.9942084979063 -110.6251088222
3.539999999999970 0.9942049720145 -110.8570320360
3.549999999999970 0.9942014647512 -111.0886389922
3.559999999999970 0.9941979756087 -111.3199319082
3.569999999999970 0.9941945040828 -111.5509130051
3.579999999999970 0.9941910496513 -111.7815845081
3.589999999999970 0.9941876118172 -112.0119486462
3.599999999999970 0.9941841900693 -112.2420076524
3.609999999999970 0.9941807839062 -112.4717637634
3.619999999999970 0.9941773928253 -112.7012192197
3.629999999999970 0.9941740163092 -112.9303762658
3.639999999999970 0.9941706538631 -113.1592371497
3.649999999999970 0.9941673049832 -113.3878041235
3.659999999999970 0.9941639691699 -113.6160794429
3.669999999999970 0.9941606459236 -113.8440653672
3.679999999999970 0.9941573347321 -114.0717641595
3.689999999999970 0.9941540351083 -114.2991780868
3.699999999999970 0.9941507465483 -114.5263094196
3.709999999999960 0.9941474685538 -114.7531604321
3.719999999999960 0.9941442006242 -114.9797334024
3.729999999999960 0.9941409422662 -115.2060306118
3.739999999999960 0.9941376929772 -115.4320543457
3.749999999999960 0.9941344522714 -115.6578068931
3.759999999999960 0.9941312196409 -115.8832905466
3.769999999999960 0.9941279946001 -116.1085076022
3.779999999999960 0.9941247766522 -116.3334603599
3.789999999999960 0.9941215652960 -116.5581511232
3.799999999999960 0.9941183600456 -116.7825821993
3.809999999999960 0.9941151604076 -117.0067558990
3.819999999999960 0.9941119658897 -117.2306745366
3.829999999999960 0.9941087759911 -117.4543404304
3.839999999999960 0.9941055902328 -117.6777559022
3.849999999999960 0.9941024081150 -117.9009232771
3.859999999999960 0.9940992291490 -118.1238448845
3.869999999999960 0.9940960528428 -118.3465230572
3.879999999999960 0.9940928787072 -118.5689601313
3.889999999999960 0.9940897062536 -118.7911584472
3.899999999999960 0.9940865349923 -119.0131203486
3.909999999999960 0.9940833644277 -119.2348481832
3.919999999999960 0.9940801940785 -119.4563443021
3.929999999999960 0.9940770234512 -119.6776110604
3.939999999999960 0.9940738520512 -119.8986508169
3.949999999999960 0.9940706794027 -120.1194659339
3.959999999999960 0.9940675050043 -120.3400587779
3.969999999999960 0.9940643283771 -120.5604317189
3.979999999999960 0.9940611490248 -120.7805871311
3.989999999999960 0.9940579664678 -121.0005273919
3.999999999999960 0.9940547802140 -121.2202548831
4.009999999999960 0.9940515897656 -121.4397719903
4.019999999999960 0.9940483946439 -121.6590811027
4.029999999999960 0.9940451943632 -121.8781846138
4.039999999999960 0.9940419884268 -122.0970849208
4.049999999999960 0.9940387763516 -122.3157844251
4.059999999999961 0.9940355576441 -122.5342855319
4.069999999999960 0.9940323318224 -122.7525906503
4.079999999999960 0.9940290983838 -122.9707021941
4.089999999999960 0.9940258568538 -123.1886225804
4.099999999999961 0.9940226067413 -123.4063542308
4.109999999999960 0.9940193475482 -123.6238995712
4.119999999999960 0.9940160787943 -123.8412610314
4.129999999999960 0.9940127999767 -124.0584410456
4.139999999999961 0.9940095106165 -124.2754420522
4.149999999999960 0.9940062102216 -124.4922664936
4.159999999999960 0.9940028982891 -124.7089168170
4.169999999999960 0.9939995743368 -124.9253954738
4.179999999999961 0.9939962378704 -125.1417049196
4.189999999999960 0.9939928883984 -125.3578476146
4.199999999999950 0.9939895254233 -125.5738260237
4.209999999999950 0.9939861484562 -125.7896426158
4.219999999999950 0.9939827569971 -126.0052998648
4.229999999999950 0.9939793505593 -126.2208002489
4.239999999999950 0.9939759286377 -126.4361462512
4.249999999999950 0.9939724907436 -126.6513403594
4.259999999999950 0.9939690363728 -126.8663850659
4.269999999999950 0.9939655650298 -127.0812828679
4.279999999999951 0.9939620762214 -127.2960362675
4.289999999999950 0.9939585694416 -127.5106477715
4.299999999999951 0.9939550441960 -127.7251198920
4.309999999999951 0.9939514999775 -127.9394551455
4.319999999999951 0.9939479362874 -128.1536560543
4.329999999999950 0.9939443526154 -128.3677251451
4.339999999999951 0.9939407484775 -128.5816649500
4.349999999999951 0.9939371233470 -128.7954780065
4.359999999999951 0.9939334767319 -129.0091668569
4.369999999999950 0.9939298081096 -129.2227340493
4.379999999999951 0.9939261169924 -129.4361821368
4.389999999999951 0.9939224028567 -129.6495136782
4.399999999999951 0.9939186651988 -129.8627312375
4.409999999999950 0.9939149035039 -130.0758373844
4.419999999999951 0.9939111172606 -130.2888346942
4.429999999999951 0.9939073059564 -130.5017257480
4.439999999999951 0.9939034690719 -130.7145131322
4.449999999999950 0.9938996060920 -130.9271994395
4.459999999999951 0.9938957165046 -131.1397872683
4.469999999999951 0.9938917997754 -131.3522792226
4.479999999999951 0.9938878553995 -131.5646779129
4.489999999999950 0.9938838828491 -131.7769859554
4.499999999999950 0.9938798815989 -131.9892059727
4.509999999999951 0.9938758511232 -132.2013405932
4.519999999999951 0.9938717908951 -132.4133924520
4.529999999999951 0.9938677003830 -132.6253641904
4.539999999999950 0.9938635790648 -132.8372584559
4.549999999999951 0.9938594263989 -133.0490779029
4.559999999999951 0.9938552418537 -133.2608251920
4.569999999999951 0.9938510249023 -133.4725029906
4.579999999999950 0.9938467749942 -133.6841139727
4.589999999999951 0.9938424916011 -133.8956608194
4.599999999999951 0.9938381741718 -134.1071462183
4.609999999999951 0.9938338221721 -134.3185728642
4.619999999999950 0.9938294350480 -134.5299434589
4.629999999999951 0.9938250122604 -134.7412607112
4.639999999999951 0.9938205532535 -134.9525273370
4.649999999999951 0.9938160574760 -135.1637460600
4.659999999999941 0.9938115243743 -135.3749196108
4.669999999999940 0.9938069534032 -135.5860507274
4.679999999999940 0.9938023439916 -135.7971421556
4.689999999999940 0.9937976955771 -136.0081966489
4.699999999999940 0.9937930076092 -136.2192169683
4.709999999999940 0.9937882795106 -136.4302058827
4.719999999999940 0.9937835107251 -136.6411661687
4.729999999999940 0.9937787006728 -136.8521006113
4.739999999999940 0.9937738487824 -137.0630120032
4.749999999999940 0.9937689544817 -137.2739031455
4.759999999999940 0.9937640171973 -137.4847768475
4.769999999999940 0.9937590363411 -137.6956359269
4.779999999999940 0.9937540113308 -137.9064832098
4.789999999999941 0.9937489415781 -138.1173215309
4.799999999999940 0.9937438265043 -138.3281537337
4.809999999999940 0.9937386655078 -138.5389826702
4.819999999999940 0.9937334579958 -138.7498112015
4.829999999999941 0.9937282033750 -138.9606421976
4.839999999999940 0.9937229010410 -139.1714785375
4.849999999999940 0.9937175503899 -139.3823231095
4.859999999999940 0.9937121508194 -139.5931788111
4.869999999999941 0.9937067017174 -139.8040485491
4.879999999999940 0.9937012024692 -140.0149352402
4.889999999999940 0.9936956524564 -140.2258418101
4.899999999999940 0.9936900510641 -140.4367711948
4.909999999999941 0.9936843976732 -140.6477263399
4.919999999999940 0.9936786916475 -140.8587102007
4.929999999999940 0.9936729323640 -141.0697257430
4.939999999999940 0.9936671191870 -141.2807759423
4.949999999999941 0.9936612514810 -141.4918637851
4.959999999999940 0.9936553286034 -141.7029922675
4.969999999999940 0.9936493499119 -141.9141643966
4.979999999999940 0.9936433147571 -142.1253831901
4.989999999999940 0.9936372224919 -142.3366516764
4.999999999999940 0.9936310724531 -142.5479728946
5.009999999999940 0.9936248639879 -142.7593498953
5.019999999999940 0.9936185964297 -142.9707857397
5.029999999999940 0.9936122691123 -143.1822835006
5.039999999999941 0.9936058813652 -143.3938462621
5.049999999999940 0.9935994325115 -143.6054771199
5.059999999999940 0.9935929218700 -143.8171791810
5.069999999999940 0.9935863487610 -144.0289555647
5.079999999999941 0.9935797124923 -144.2408094019
5.089999999999940 0.9935730123764 -144.4527438355
5.099999999999940 0.9935662477077 -144.6647620208
5.109999999999940 0.9935594177931 -144.8768671251
5.119999999999941 0.9935525219216 -145.0890623285
5.129999999999940 0.9935455593856 -145.3013508233
5.139999999999940 0.9935385294688 -145.5137358150
5.149999999999931 0.9935314314515 -145.7262205216
5.159999999999931 0.9935242646075 -145.9388081741
5.169999999999931 0.9935170282082 -146.1515020169
5.179999999999930 0.9935097215180 -146.3643053076
5.189999999999931 0.9935023437969 -146.5772213171
5.199999999999931 0.9934948943024 -146.7902533301
5.209999999999931 0.9934873722834 -147.0034046448
5.219999999999930 0.9934797769844 -147.2166785736
5.229999999999931 0.9934721076484 -147.4300784427
5.239999999999931 0.9934643635049 -147.6436075925
5.249999999999931 0.9934565437858 -147.8572693778
5.259999999999931 0.9934486477156 -148.0710671681
5.269999999999930 0.9934406745100 -148.2850043472
5.279999999999931 0.9934326233809 -148.4990843139
5.289999999999931 0.9934244935398 -148.7133104819
5.299999999999931 0.9934162841822 -148.9276862804
5.309999999999930 0.9934079945056 -149.1422151532
5.319999999999931 0.9933996237033 -149.3569005602
5.329999999999931 0.9933911709511 -149.5717459766
5.339999999999931 0.9933826354290 -149.7867548935
5.349999999999930 0.9933740163124 -150.0019308181
5.359999999999931 0.9933653127621 -150.2172772733
5.369999999999931 0.9933565239387 -150.4327977990
5.379999999999931 0.9933476489939 -150.6484959508
5.389999999999930 0.9933386870744 -150.8643753015
5.399999999999931 0.9933296373195 -151.0804394405
5.409999999999931 0.9933204988607 -151.2966919743
5.419999999999931 0.9933112708264 -151.5131365265
5.429999999999930 0.9933019523354 -151.7297767382
5.439999999999931 0.9932925425010 -151.9466162678
5.449999999999931 0.9932830404275 -152.1636587915
5.459999999999931 0.9932734452159 -152.3809080039
5.469999999999930 0.9932637559564 -152.5983676168
5.479999999999931 0.9932539717354 -152.8160413611
5.489999999999931 0.9932440916278 -153.0339329859
5.499999999999931 0.9932341147059 -153.2520462586
5.509999999999931 0.9932240400340 -153.4703849660
5.519999999999930 0.9932138666640 -153.6889529138
5.529999999999931 0.9932035936447 -153.9077539267
5.539999999999931 0.9931932200177 -154.1267918492
5.549999999999931 0.9931827448146 -154.3460705453
5.559999999999930 0.9931721670589 -154.5655938986
5.569999999999931 0.9931614857689 -154.7853658133
5.579999999999931 0.9931506999533 -155.0053902134
5.589999999999931 0.9931398086110 -155.2256710435
5.599999999999921 0.9931288107355 -155.4462122688
5.609999999999920 0.9931177053118 -155.6670178757
5.619999999999920 0.9931064913159 -155.8880918711
5.629999999999920 0.9930951677113 -156.1094382838
5.639999999999921 0.9930837334610 -156.3310611639
5.649999999999920 0.9930721875136 -156.5529645829
5.659999999999920 0.9930605288101 -156.7751526346
5.669999999999920 0.9930487562830 -156.9976294351
5.679999999999921 0.9930368688567 -157.2203991226
5.689999999999920 0.9930248654450 -157.4434658580
5.699999999999920 0.9930127449543 -157.6668338249
5.709999999999920 0.9930005062798 -157.8905072301
5.719999999999920 0.9929881483096 -158.1144903039
5.729999999999920 0.9929756699194 -158.3387872998
5.739999999999920 0.9929630699787 -158.5634024952
5.749999999999920 0.9929503473457 -158.7883401912
5.759999999999920 0.9929375008671 -159.0136047137
5.769999999999921 0.9929245293835 -159.2392004124
5.779999999999920 0.9929114317239 -159.4651316622
5.789999999999920 0.9928982067071 -159.6914028626
5.799999999999920 0.9928848531397 -159.9180184386
5.809999999999921 0.9928713698215 -160.1449828402
5.819999999999920 0.9928577555412 -160.3723005435
5.829999999999920 0.9928440090747 -160.5999760501
5.839999999999920 0.9928301291905 -160.8280138882
5.849999999999921 0.9928161146441 -161.0564186120
5.859999999999920 0.9928019641811 -161.2851948026
5.869999999999920 0.9927876765359 -161.5143470680
5.879999999999920 0.9927732504331 -161.7438800432
5.889999999999921 0.9927586845842 -161.9737983910
5.899999999999920 0.9927439776908 -162.2041068015
5.909999999999920 0.9927291284425 -162.4348099929
5.919999999999920 0.9927141355186 -162.6659127118
5.929999999999921 0.9926989975857 -162.8974197329
5.939999999999920 0.9926837132989 -163.1293358601
5.949999999999920 0.9926682813009 -163.3616659260