! Sonnet Data File
! From: em Version : 18.56
! From Project: hairpin_BroadBand_Nf991
! Data is De-embedded 
! Data File Written: 03/21/2023 19:02:32
!< HDATE 10/24/2012 11:01:19
!< MDATE 10/24/2012 11:01:19
# GHZ S MA R 50.00000
0.100000000000000 0.9999372030813 -2.998320814977 8.674756278e-12 161.11877897410 8.674756349e-12 161.11877214973 0.9999404609122 -2.842790019963
0.110000000000000 0.9999309191677 -3.298336562014 1.270711746e-11 174.67848667642 1.270711745e-11 174.67848515346 0.9999345034986 -3.127222821760
0.120000000000000 0.9999246340732 -3.598404805500 3.089328857e-11 175.11349089836 3.089328865e-11 175.11349105837 0.9999285451606 -3.411699581744
0.130000000000000 0.9999183476779 -3.898530327514 6.016013085e-11 174.99937640349 6.016013089e-11 174.99937644441 0.9999225858342 -3.696224303590
0.140000000000000 0.9999120598644 -4.198717911658 2.309878069e-11 -3.245571074091 2.309878110e-11 -3.245571793290 0.9999166251223 -3.980800993041
0.150000000000000 0.9999057704868 -4.498972346097 3.493205476e-11 -1.872527402069 3.493205511e-11 -1.872527711692 0.9999106632590 -4.265433657236
0.160000000000000 0.9998994794208 -4.799298419422 8.102832213e-12 -5.115045734125 8.102831988e-12 -5.115044114164 0.9999046999110 -4.550126305560
0.170000000000000 0.9998931866824 -5.099700925763 7.707907135e-11 174.40169396614 7.707907121e-11 174.40169380916 0.9998987352463 -4.834882949791
0.180000000000000 0.9998868917745 -5.400184660519 1.114935059e-10 -5.126755989074 1.114935060e-10 -5.126756016073 0.9998927688811 -5.119707605220
0.190000000000000 0.9998805950272 -5.700754424139 4.302904610e-11 175.17270554383 4.302904608e-11 175.17270537704 0.9998868009216 -5.404604288680
0.200000000000000 0.9998742961849 -6.001415019803 5.153195511e-11 169.66582842992 5.153195510e-11 169.66582835911 0.9998808312653 -5.689577020292
0.210000000000000 0.9998679951115 -6.302171253985 2.438341047e-12 76.587736355098 2.438341081e-12 76.587736873617 0.9998748596098 -5.974629821873
0.220000000000000 0.9998616915830 -6.603027939638 5.451710762e-11 -5.480799803066 5.451710758e-11 -5.480799780559 0.9998688860242 -6.259766721038
0.230000000000000 0.9998553855955 -6.903989891868 4.776259531e-11 172.13607813668 4.776259527e-11 172.13607823220 0.9998629104706 -6.544991746977
0.240000000000000 0.9998490769333 -7.205061931207 2.344440149e-11 -8.531890048152 2.344440149e-11 -8.531890048487 0.9998569327445 -6.830308931959
0.250000000000000 0.9998427659559 -7.506248882140 2.763296844e-11 -176.4877037228 2.763296845e-11 -176.4877036613 0.9998509529627 -7.115722312527
0.260000000000000 0.9998364520210 -7.807555576430 8.559614620e-12 29.777615672731 8.559614647e-12 29.777615925213 0.9998449708004 -7.401235931174
0.270000000000000 0.9998301349285 -8.108986847547 3.277802398e-11 -9.365285123605 3.277802396e-11 -9.365285029668 0.9998389862126 -7.686853829985
0.280000000000000 0.9998238149834 -8.410547534867 1.807605670e-11 145.77843619300 1.807605671e-11 145.77843616932 0.9998329990909 -7.972580056493
0.290000000000000 0.9998174917693 -8.712242488039 4.805550256e-11 -7.210637482823 4.805550256e-11 -7.210637476520 0.9998270091790 -8.258418666536
0.300000000000000 0.9998111652290 -9.014076556622 2.026358869e-11 158.41336333676 2.026358869e-11 158.41336334499 0.9998210167635 -8.544373714076
0.310000000000000 0.9998048357682 -9.316054597585 3.598621043e-11 -7.090863547326 3.598621044e-11 -7.090863531181 0.9998150216343 -8.830449262663
0.320000000000000 0.9997985024083 -9.618181478323 1.775776913e-11 -20.57442496068 1.775776913e-11 -20.57442496088 0.9998090234435 -9.116649378925
0.330000000000000 0.9997921653923 -9.920462065737 4.635115655e-11 -9.640112591207 4.635115655e-11 -9.640112603795 0.9998030223707 -9.402978133089
0.340000000000000 0.9997858247665 -10.22290123786 2.340383801e-11 164.24547329187 2.340383801e-11 164.24547331063 0.9997970182057 -9.689439601543
0.350000000000000 0.9997794804349 -10.52550388009 2.368938208e-11 -31.67505192022 2.368938209e-11 -31.67505197992 0.9997910108783 -9.976037867419
0.360000000000000 0.9997731320098 -10.82827488161 7.139834039e-12 -45.26102132873 7.139834057e-12 -45.26102130221 0.9997850003015 -10.26277701587
0.370000000000000 0.9997667795640 -11.13121914059 4.688448559e-11 169.40841927928 4.688448560e-11 169.40841929003 0.9997789863637 -10.54966114002
0.380000000000000 0.9997604228129 -11.43434156287 3.354341189e-11 171.63324934185 3.354341189e-11 171.63324934092 0.9997729689313 -10.83669433811
0.390000000000000 0.9997540619085 -11.73764706116 1.307731548e-11 -16.99912677657 1.307731548e-11 -16.99912679623 0.9997669478925 -11.12388071425
0.400000000000000 0.9997476965251 -12.04114055707 2.030593627e-11 -23.18966995835 2.030593627e-11 -23.18966995083 0.9997609233280 -11.41122437869
0.410000000000000 0.9997413265585 -12.34482697932 1.024058711e-10 168.96707138224 1.024058711e-10 168.96707138156 0.9997548950489 -11.69872944765
0.420000000000000 0.9997349520791 -12.64871126447 5.060216513e-11 -16.60299405722 5.060216514e-11 -16.60299406103 0.9997488627629 -11.98640004395
0.430000000000000 0.9997285725894 -12.95279835873 3.092319795e-11 137.84326876255 3.092319795e-11 137.84326876010 0.9997428267706 -12.27424029536
0.440000000000000 0.9997221886007 -13.25709321573 4.246743747e-11 -19.77898516387 4.246743746e-11 -19.77898516572 0.9997367865892 -12.56225433849
0.450000000000000 0.9997157994776 -13.56160080072 1.432874064e-11 -175.2517037489 1.432874064e-11 -175.2517037603 0.9997307423417 -12.85044631637
0.460000000000000 0.9997094051453 -13.86632608437 6.765650400e-12 13.481412727600 6.765650392e-12 13.481412668934 0.9997246938634 -13.13882037927
0.470000000000000 0.9997030056799 -14.17127404828 3.928414612e-11 139.57133235545 3.928414611e-11 139.57133235102 0.9997186411053 -13.42738068164
0.480000000000000 0.9996966009440 -14.47644968157 1.292756937e-11 -17.67153787399 1.292756938e-11 -17.67153786156 0.9997125839642 -13.71613138673
0.490000000000000 0.9996901906978 -14.78185798904 1.360525829e-11 165.93323760120 1.360525829e-11 165.93323760624 0.9997065223029 -14.00507667109
0.500000000000000 0.9996837747268 -15.08750397983 6.208559432e-11 -14.03651467809 6.208559432e-11 -14.03651467362 0.9997004558664 -14.29422071122
0.510000000000000 0.9996773532808 -15.39339267388 2.258840992e-11 -3.111358444856 2.258840992e-11 -3.111358451609 0.9996943849893 -14.58356769063
0.520000000000000 0.9996709260914 -15.69952910206 5.648664241e-11 -20.45553379839 5.648664241e-11 -20.45553380205 0.9996883093253 -14.87312180670
0.530000000000000 0.9996644928211 -16.00591830745 3.834153578e-11 -176.3223515340 3.834153579e-11 -176.3223515335 0.9996822286457 -15.16288726353
0.540000000000000 0.9996580536486 -16.31256533954 3.969811383e-11 164.00726688191 3.969811383e-11 164.00726688449 0.9996761431302 -15.45286827002
0.550000000000000 0.9996516083111 -16.61947526670 2.269231698e-11 -0.194266204631 2.269231698e-11 -0.194266212895 0.9996700524510 -15.74306904837
0.560000000000000 0.9996451567048 -16.92665315854 6.808380921e-11 -30.79117916057 6.808380922e-11 -30.79117916119 0.9996639565573 -16.03349382573
0.570000000000000 0.9996386985859 -17.23410410249 2.215021194e-11 109.47171577933 2.215021193e-11 109.47171577924 0.9996578553402 -16.32414683556
0.580000000000000 0.9996322342391 -17.54183319604 3.229606636e-11 164.72923446868 3.229606636e-11 164.72923446462 0.9996517489889 -16.61503232959
0.590000000000000 0.9996257631474 -17.84984554875 2.812495006e-11 -26.89454235774 2.812495006e-11 -26.89454236954 0.9996456370954 -16.90615455897
0.600000000000000 0.9996192853725 -18.15814628118 1.494523400e-11 92.536278567742 1.494523401e-11 92.536278559316 0.9996395196103 -17.19751778741
0.610000000000000 0.9996128007184 -18.46674052709 1.454503770e-11 -67.21804552457 1.454503770e-11 -67.21804551532 0.9996333964661 -17.48912629126
0.620000000000000 0.9996063092207 -18.77563343014 1.443698903e-11 158.27940193971 1.443698903e-11 158.27940194071 0.9996272676704 -17.78098435053
0.630000000000000 0.9995998104452 -19.08483015123 3.587470312e-11 170.09047127392 3.587470312e-11 170.09047126986 0.9996211328070 -18.07309626132
0.640000000000000 0.9995933045420 -19.39433586164 8.011335239e-12 -20.25805007699 8.011335239e-12 -20.25805007296 0.9996149920874 -18.36546632487
0.650000000000000 0.9995867915333 -19.70415574457 1.547334030e-11 112.14021197997 1.547334030e-11 112.14021198668 0.9996088455454 -18.65809885501
0.660000000000000 0.9995802709634 -20.01429499671 1.287938112e-11 -28.98845624901 1.287938112e-11 -28.98845625135 0.9996026926557 -18.95099817343
0.670000000000000 0.9995737430232 -20.32475882728 5.218546752e-11 164.68940812363 5.218546752e-11 164.68940812592 0.9995965337330 -19.24416861184
0.680000000000000 0.9995672073076 -20.63555246175 4.836480513e-11 -17.01731057468 4.836480513e-11 -17.01731057320 0.9995903683652 -19.53761451433
0.690000000000000 0.9995606638282 -20.94668114241 2.863149792e-12 19.026470692319 2.863149791e-12 19.026470731334 0.9995841965958 -19.83134024273
0.700000000000000 0.9995541124524 -21.25815011691 1.830614211e-11 108.43252378601 1.830614211e-11 108.43252379164 0.9995780182762 -20.12535015350
0.710000000000000 0.9995475531833 -21.56996465173 4.259167091e-11 140.33121411130 4.259167091e-11 140.33121411136 0.9995718334433 -20.41964862910
0.720000000000000 0.9995409856414 -21.88213003014 3.338153571e-11 168.73750388550 3.338153571e-11 168.73750388443 0.9995656417749 -20.71424005262
0.730000000000001 0.9995344100338 -22.19465154582 1.678812375e-11 -178.9588016391 1.678812375e-11 -178.9588016401 0.9995594434117 -21.00912882738
0.740000000000001 0.9995278260192 -22.50753450987 3.880345360e-11 -177.9383724713 3.880345360e-11 -177.9383724709 0.9995532380987 -21.30431936113
0.750000000000001 0.9995212334996 -22.82078424953 2.932348031e-11 138.68814116777 2.932348031e-11 138.68814117234 0.9995470257149 -21.59981608070
0.760000000000001 0.9995146325068 -23.13440610172 1.817860298e-11 0.8819890326001 1.817860298e-11 0.8819890385919 0.9995408064004 -21.89562341349
0.770000000000001 0.9995080228214 -23.44840542569 2.794109635e-11 112.61556095350 2.794109636e-11 112.61556095453 0.9995345798537 -22.19174581116
0.780000000000001 0.9995014042162 -23.76278759461 1.674103263e-11 -65.50846487399 1.674103263e-11 -65.50846487561 0.9995283459028 -22.48818773063
0.790000000000001 0.9994947767735 -24.07755799347 3.257256169e-11 163.16890066868 3.257256169e-11 163.16890066591 0.9995221046588 -22.78495364209
0.800000000000001 0.9994881403462 -24.39272202651 7.825866319e-12 173.95206042593 7.825866319e-12 173.95206041596 0.9995158559976 -23.08204802847
0.810000000000001 0.9994814946209 -24.70828511505 2.696540427e-11 -29.34159733659 2.696540426e-11 -29.34159733703 0.9995095996084 -23.37947538663
0.820000000000001 0.9994748396532 -25.02425269492 7.425515911e-12 109.65942062901 7.425515911e-12 109.65942062728 0.9995033355635 -23.67724022682
0.830000000000001 0.9994681753816 -25.34063022176 3.397247551e-11 138.54685462233 3.397247551e-11 138.54685462259 0.9994970638385 -23.97534706726
0.840000000000001 0.9994615015478 -25.65742316320 2.751376328e-11 143.03350407700 2.751376328e-11 143.03350407778 0.9994907841805 -24.27380044781
0.850000000000001 0.9994548180423 -25.97463700599 1.819559173e-11 161.46252295395 1.819559173e-11 161.46252295223 0.9994844964694 -24.57260491347
0.860000000000001 0.9994481249086 -26.29227725744 1.763874960e-11 -39.36582886651 1.763874959e-11 -39.36582886147 0.9994782008288 -24.87176502338
0.870000000000001 0.9994414218925 -26.61034944183 6.391362621e-12 45.435451044335 6.391362620e-12 45.435451039088 0.9994718970664 -25.17128535945
0.880000000000001 0.9994347088679 -26.92885909468 2.682367699e-11 -138.0041688729 2.682367699e-11 -138.0041688726 0.9994655849701 -25.47117050807
0.890000000000001 0.9994279857925 -27.24781177460 3.291628301e-11 -177.6990167623 3.291628301e-11 -177.6990167631 0.9994592644744 -25.77142507280
0.900000000000001 0.9994212524792 -27.56721305944 6.881268022e-12 55.006349915203 6.881268022e-12 55.006349914045 0.9994529355714 -26.07205367308
0.910000000000001 0.9994145089043 -27.88706854462 4.691753194e-11 -29.62382564137 4.691753194e-11 -29.62382564221 0.9994465981235 -26.37306093851
0.920000000000001 0.9994077548680 -28.20738383817 3.746886875e-11 0.0723196806054 3.746886875e-11 0.0723196802477 0.9994402520391 -26.67445151788
0.930000000000001 0.9994009902443 -28.52816457626 2.274425158e-11 -161.1279656663 2.274425158e-11 -161.1279656665 0.9994338971447 -26.97623006817
0.940000000000001 0.9993942149778 -28.84941640859 1.472878816e-11 47.766610290752 1.472878816e-11 47.766610292448 0.9994275334766 -27.27840126860
0.950000000000001 0.9993874289707 -29.17114500204 2.610646563e-11 15.120270172084 2.610646563e-11 15.120270171815 0.9994211608097 -27.58096981145
0.960000000000001 0.9993806319898 -29.49335605002 4.470286532e-11 95.720270395675 4.470286532e-11 95.720270395829 0.9994147791758 -27.88394040225
0.970000000000001 0.9993738240888 -29.81605525640 8.825403133e-12 -92.35707557968 8.825403134e-12 -92.35707557622 0.9994083883709 -28.18731775829
0.980000000000001 0.9993670050707 -30.13924835258 1.260406268e-11 150.93878466435 1.260406268e-11 150.93878466279 0.9994019883318 -28.49110662378
0.990000000000001 0.9993601747312 -30.46294108195 2.112752186e-11 141.98638132081 2.112752186e-11 141.98638132127 0.9993955789732 -28.79531174511
1.000000000000000 0.9993533330477 -30.78713922203 3.890684096e-11 91.561293661191 3.890684096e-11 91.561293660348 0.9993891601503 -29.09993789590
1.010000000000000 0.9993464798701 -31.11184855454 9.561331600e-12 -45.21605714703 9.561331600e-12 -45.21605714587 0.9993827317978 -29.40498985902
1.020000000000000 0.9993396152219 -31.43707488718 2.248838327e-11 88.404557751866 2.248838327e-11 88.404557751526 0.9993762939111 -29.71047243525
1.030000000000000 0.9993327386982 -31.76282405223 1.625354331e-11 -18.58828956783 1.625354331e-11 -18.58828956716 0.9993698461768 -30.01639044042
1.040000000000000 0.9993258504895 -32.08910190111 1.404395007e-11 133.93245429414 1.404395007e-11 133.93245429347 0.9993633887638 -30.32274871133
1.050000000000000 0.9993189502229 -32.41591430369 3.027145387e-11 -31.61865750035 3.027145387e-11 -31.61865750140 0.9993569212188 -30.62955209727
1.060000000000000 0.9993120380111 -32.74326715218 2.823215714e-11 97.397734916549 2.823215714e-11 97.397734917355 0.9993504439097 -30.93680546372
1.070000000000000 0.9993051136459 -33.07116636051 2.980255146e-12 10.569279075651 2.980255146e-12 10.569279088016 0.9993439564097 -31.24451369680
1.080000000000000 0.9992981769653 -33.39961786733 2.260054263e-11 2.9669175523100 2.260054263e-11 2.9669175512576 0.9993374586351 -31.55268169652
1.090000000000000 0.9992912278410 -33.72862763120 1.987021586e-11 7.0668325916888 1.987021586e-11 7.0668325921560 0.9993309505540 -31.86131438838
1.100000000000000 0.9992842662012 -34.05820162818 1.189038350e-11 -23.57325560206 1.189038350e-11 -23.57325560052 0.9993244321060 -32.17041670022
1.110000000000000 0.9992772919680 -34.38834586021 1.935544887e-11 3.8059312143752 1.935544887e-11 3.8059312134155 0.9993179031542 -32.47999359205
1.120000000000000 0.9992703050211 -34.71906635728 2.198081125e-11 78.741657833906 2.198081125e-11 78.741657835432 0.9993113635580 -32.79005003147
1.130000000000000 0.9992633051478 -35.05036915496 1.498639466e-11 -86.58827648756 1.498639466e-11 -86.58827648650 0.9993048133301 -33.10059101235
1.140000000000000 0.9992562924634 -35.38226033429 1.088235964e-11 -141.0490254611 1.088235964e-11 -141.0490254608 0.9992982523044 -33.41162153987
1.150000000000000 0.9992492666141 -35.71474598531 1.408006061e-11 10.713852126392 1.408006061e-11 10.713852126284 0.9992916803706 -33.72314664225
1.160000000000000 0.9992422276012 -36.04783221964 4.766996973e-12 -79.04621449896 4.766996973e-12 -79.04621449653 0.9992850974268 -34.03517136968
1.170000000000000 0.9992351752420 -36.38152517791 3.678466379e-12 -86.61256098182 3.678466378e-12 -86.61256097687 0.9992785033716 -34.34770077484
1.180000000000000 0.9992281095127 -36.71583102793 2.640980610e-11 81.701858715434 2.640980610e-11 81.701858715430 0.9992718983079 -34.66073995447
1.190000000000000 0.9992210302463 -37.05075594721 2.623546348e-11 152.34007456247 2.623546348e-11 152.34007456221 0.9992652817889 -34.97429400397
1.200000000000000 0.9992139373522 -37.38630614751 3.613611090e-11 -151.3887533754 3.613611090e-11 -151.3887533753 0.9992586539300 -35.28836803785
1.210000000000000 0.9992068306910 -37.72248787108 3.892002469e-11 -25.42447189329 3.892002469e-11 -25.42447189360 0.9992520146225 -35.60296720914
1.220000000000000 0.9991997101170 -38.05930736640 1.303887784e-11 52.798092262270 1.303887784e-11 52.798092263058 0.9992453636381 -35.91809666917
1.230000000000000 0.9991925756469 -38.39677092006 1.767622396e-11 164.84073157942 1.767622396e-11 164.84073157922 0.9992387011594 -36.23376159830
1.240000000000000 0.9991854270209 -38.73488484038 2.263745047e-11 100.28032543466 2.263745047e-11 100.28032543540 0.9992320267655 -36.54996720373
1.250000000000000 0.9991782642923 -39.07365545654 1.347901507e-11 -93.86202309490 1.347901506e-11 -93.86202309535 0.9992253405931 -36.86671869661
1.260000000000000 0.9991710871666 -39.41308912476 3.426195297e-11 59.418853921788 3.426195297e-11 59.418853921541 0.9992186424844 -37.18402132425
1.270000000000000 0.9991638957267 -39.75319222900 2.991320374e-11 68.687274769192 2.991320374e-11 68.687274769389 0.9992119322665 -37.50188034388
1.280000000000000 0.9991566896880 -40.09397117689 3.523304712e-12 103.92531247407 3.523304712e-12 103.92531247455 0.9992052098976 -37.82030103647
1.290000000000000 0.9991494690445 -40.43543239715 6.135157009e-12 72.601032369646 6.135157010e-12 72.601032372221 0.9991984752704 -38.13928870346
1.300000000000000 0.9991422336361 -40.77758235196 2.041902654e-11 -34.31011609423 2.041902654e-11 -34.31011609460 0.9991917283199 -38.45884867106
1.310000000000000 0.9991349834169 -41.12042751851 2.775142154e-11 -35.41503091267 2.775142154e-11 -35.41503091368 0.9991849689544 -38.77898628114
1.320000000000000 0.9991277181676 -41.46397440946 3.637575071e-12 165.70683702875 3.637575071e-12 165.70683702970 0.9991781970228 -39.09970689549
1.330000000000000 0.9991204379054 -41.80822956405 5.261412057e-11 32.983380403830 5.261412057e-11 32.983380404012 0.9991714125114 -39.42101590523
1.340000000000000 0.9991131425278 -42.15319953939 1.693988798e-11 -22.66102016149 1.693988798e-11 -22.66102016118 0.9991646152618 -39.74291872362
1.350000000000000 0.9991058318165 -42.49889091484 9.211310471e-12 -31.98827108287 9.211310471e-12 -31.98827108423 0.9991578051500 -40.06542076590
1.360000000000000 0.9990985057687 -42.84531032354 2.584440043e-11 -140.7749108391 2.584440043e-11 -140.7749108389 0.9991509821938 -40.38852750097
1.370000000000000 0.9990911641535 -43.19246439271 4.022649209e-11 -131.5866105673 4.022649209e-11 -131.5866105674 0.9991441461498 -40.71224439110
1.380000000000000 0.9990838069664 -43.54035978820 1.913376455e-11 3.0308593955604 1.913376455e-11 3.0308593959115 0.9991372969731 -41.03657693363
1.390000000000000 0.9990764341232 -43.88900321412 8.332425304e-12 43.391863295751 8.332425304e-12 43.391863295969 0.9991304346467 -41.36153065564
1.400000000000000 0.9990690454233 -44.23840138533 3.598661462e-11 78.673527382964 3.598661462e-11 78.673527383255 0.9991235589780 -41.68711109653
1.410000000000000 0.9990616408853 -44.58856105762 2.600428771e-11 -76.08980191778 2.600428771e-11 -76.08980191781 0.9991166699905 -42.01332381638
1.420000000000000 0.9990542202236 -44.93948899843 9.938485216e-12 141.19679647735 9.938485217e-12 141.19679647689 0.9991097674280 -42.34017440350
1.430000000000000 0.9990467835600 -45.29119200740 2.590056918e-11 58.515303136596 2.590056918e-11 58.515303136426 0.9991028513852 -42.66766846477
1.440000000000000 0.9990393306104 -45.64367693147 3.213491856e-11 109.35033674285 3.213491856e-11 109.35033674255 0.9990959215528 -42.99581164408
1.450000000000000 0.9990318614448 -45.99695061568 2.393781793e-11 172.97938532138 2.393781793e-11 172.97938532158 0.9990889780728 -43.32460959373
1.460000000000000 0.9990243757693 -46.35101995073 2.526320697e-11 49.098240226920 2.526320697e-11 49.098240227133 0.9990820206426 -43.65406799103
1.470000000000000 0.9990168735795 -46.70589185689 1.478079895e-11 -53.38942531363 1.478079895e-11 -53.38942531350 0.9990750492628 -43.98419254936
1.480000000000000 0.9990093548457 -47.06157326744 1.726216273e-11 30.098567651950 1.726216273e-11 30.098567652137 0.9990680638396 -44.31498898909
1.490000000000000 0.9990018193274 -47.41807115888 1.690874602e-11 66.079752867304 1.690874602e-11 66.079752867304 0.9990610642874 -44.64646306361
1.500000000000000 0.9989942670573 -47.77539252597 2.088459956e-11 16.769696065904 2.088459956e-11 16.769696065946 0.9990540505416 -44.97862055474
1.510000000000000 0.9989866978945 -48.13354440801 9.013711257e-12 7.2774616138244 9.013711257e-12 7.2774616135447 0.9990470224229 -45.31146726972
1.520000000000000 0.9989791117305 -48.49253384503 3.379349965e-11 63.750816541213 3.379349965e-11 63.750816541172 0.9990399799098 -45.64500902183
1.530000000000000 0.9989715083958 -48.85236793563 1.397139466e-11 22.978348329467 1.397139466e-11 22.978348329429 0.9990329228462 -45.97925167415
1.540000000000000 0.9989638879406 -49.21305378109 1.711735297e-11 113.07783702295 1.711735297e-11 113.07783702286 0.9990258512097 -46.31420109325
1.550000000000000 0.9989562501556 -49.57459853602 1.851186302e-11 114.20564481679 1.851186302e-11 114.20564481682 0.9990187648546 -46.64986319168
1.560000000000000 0.9989485950098 -49.93700936544 2.388773354e-11 104.78216581667 2.388773354e-11 104.78216581651 0.9990116637040 -46.98624389268
1.570000000000000 0.9989409224111 -50.30029347371 7.043926490e-12 -126.6569804931 7.043926490e-12 -126.6569804930 0.9990045477632 -47.32334914117
1.580000000000000 0.9989332322328 -50.66445809316 8.249901764e-12 -41.32485488096 8.249901764e-12 -41.32485488163 0.9989974167482 -47.66118492932
1.590000000000000 0.9989255244254 -51.02951047255 1.738115003e-11 -177.5401165625 1.738115003e-11 -177.5401165625 0.9989902707377 -47.99975725152
1.600000000000000 0.9989177988354 -51.39545790891 2.120754615e-11 32.947129602137 2.120754615e-11 32.947129602184 0.9989831095247 -48.33907214359
1.610000000000000 0.9989100554226 -51.76230772368 3.479286809e-11 35.931538821950 3.479286809e-11 35.931538821989 0.9989759330907 -48.67913566119
1.620000000000000 0.9989022941006 -52.13006725293 1.281747569e-11 -20.62505976130 1.281747569e-11 -20.62505976130 0.9989687413675 -49.01995388789
1.630000000000000 0.9988945147765 -52.49874388631 4.520890265e-11 44.192592636164 4.520890265e-11 44.192592636237 0.9989615341545 -49.36153292744
1.640000000000000 0.9988867173968 -52.86834503001 8.585189599e-12 16.497392955223 8.585189599e-12 16.497392955133 0.9989543115119 -49.70387893192
1.650000000000000 0.9988789018569 -53.23887811095 1.558617253e-11 -68.81110528010 1.558617253e-11 -68.81110528009 0.9989470732568 -50.04699805311
1.660000000000000 0.9988710680042 -53.61035061522 2.967480269e-11 -156.6309170968 2.967480269e-11 -156.6309170969 0.9989398192837 -50.39089648851
1.670000000000000 0.9988632159026 -53.98277001660 3.462228007e-11 60.244395615134 3.462228007e-11 60.244395615119 0.9989325495883 -50.73558045251
1.680000000000000 0.9988553452367 -54.35614385718 1.947559001e-11 61.732511117203 1.947559001e-11 61.732511117203 0.9989252639538 -51.08105619099
1.690000000000000 0.9988474562042 -54.73047969005 6.836818598e-11 18.935731142190 6.836818598e-11 18.935731142199 0.9989179624418 -51.42732998101
1.700000000000000 0.9988395485463 -55.10578511217 1.356281258e-11 -157.6856569190 1.356281258e-11 -157.6856569191 0.9989106449299 -51.77440812539
1.710000000000000 0.9988316222182 -55.48206772191 2.663899371e-11 112.88162534030 2.663899371e-11 112.88162534012 0.9989033112628 -52.12229695071
1.720000000000000 0.9988236772068 -55.85933518111 3.670904363e-11 -0.081948758408 3.670904363e-11 -0.081948758388 0.9988959613727 -52.47100281636
1.730000000000000 0.9988157133579 -56.23759517042 2.401410903e-11 28.091977092562 2.401410903e-11 28.091977092636 0.9988885952121 -52.82053210988
1.740000000000000 0.9988077306460 -56.61685538986 3.237825319e-11 95.973384143038 3.237825319e-11 95.973384142966 0.9988812126605 -53.17089124579
1.750000000000000 0.9987997289620 -56.99712358389 2.280429695e-11 -41.74184346980 2.280429695e-11 -41.74184346988 0.9988738136567 -53.52208667454
1.760000000000000 0.9987917082434 -57.37840751513 2.739168343e-11 42.303182856794 2.739168343e-11 42.303182856759 0.9988663981218 -53.87412485977
1.770000000000000 0.9987836684900 -57.76071500258 4.000798037e-11 24.931553583659 4.000798037e-11 24.931553583644 0.9988589659809 -54.22701231487
1.780000000000000 0.9987756095447 -58.14405386117 4.268568956e-11 44.874774828094 4.268568956e-11 44.874774828070 0.9988515171081 -54.58075557186
1.790000000000000 0.9987675313217 -58.52843194955 1.263420723e-11 137.18391274920 1.263420723e-11 137.18391274922 0.9988440513564 -54.93536118313
1.800000000000000 0.9987594338921 -58.91385716830 4.543257706e-11 90.653351187826 4.543257706e-11 90.653351187812 0.9988365688293 -55.29083574540
1.810000000000000 0.9987513170473 -59.30033744522 3.020980471e-11 63.323308194728 3.020980471e-11 63.323308194694 0.9988290693077 -55.64718588730
1.820000000000000 0.9987431807856 -59.68788072487 2.473011558e-11 38.875840619416 2.473011558e-11 38.875840619418 0.9988215527245 -56.00441826038
1.830000000000000 0.9987350250152 -60.07649499505 5.074504001e-11 -4.130253548600 5.074504001e-11 -4.130253548620 0.9988140190260 -56.36253954128
1.840000000000000 0.9987268497421 -60.46618827039 2.698995157e-11 20.639688422913 2.698995157e-11 20.639688422961 0.9988064681060 -56.72155645282
1.850000000000000 0.9987186548624 -60.85696859954 3.366880629e-11 -54.15785285724 3.366880629e-11 -54.15785285727 0.9987988999669 -57.08147572829
1.860000000000000 0.9987104403588 -61.24884405869 3.196002148e-11 38.196267349277 3.196002148e-11 38.196267349273 0.9987913144282 -57.44230415895
1.870000000000000 0.9987022060880 -61.64182275563 4.238430129e-11 48.826541640971 4.238430129e-11 48.826541640984 0.9987837114174 -57.80404854284
1.880000000000000 0.9986939520563 -62.03591283583 5.339283465e-12 68.660223084006 5.339283465e-12 68.660223083933 0.9987760908509 -58.16671573231
1.890000000000000 0.9986856781480 -62.43112245576 4.632034406e-11 -9.250624076495 4.632034406e-11 -9.250624076492 0.9987684526703 -58.53031257918
1.900000000000000 0.9986773843881 -62.82745982063 3.953373893e-11 60.368458548450 3.953373893e-11 60.368458548441 0.9987607968065 -58.89484600098
1.910000000000000 0.9986690708223 -63.22493316726 1.573908251e-11 34.238668635488 1.573908251e-11 34.238668635470 0.9987531232486 -59.26032293413
1.920000000000000 0.9986607370887 -63.62355075694 2.337886886e-11 76.844779856808 2.337886886e-11 76.844779856797 0.9987454317316 -59.62675034252
1.930000000000000 0.9986523834802 -64.02332088910 6.070541732e-11 49.535445253261 6.070541732e-11 49.535445253258 0.9987377223371 -59.99413524226
1.940000000000000 0.9986440097809 -64.42425186977 6.709211177e-11 21.106969631118 6.709211177e-11 21.106969631105 0.9987299949448 -60.36248464357
1.950000000000000 0.9986356159165 -64.82635207464 4.384672857e-11 48.145755040361 4.384672857e-11 48.145755040402 0.9987222494379 -60.73180564287
1.960000000000000 0.9986272020053 -65.22962988166 2.415478521e-11 43.864429779242 2.415478521e-11 43.864429779250 0.9987144859119 -61.10210532638
1.970000000000000 0.9986187678382 -65.63409370504 6.365106485e-11 87.759379065480 6.365106485e-11 87.759379065485 0.9987067039746 -61.47339083778
1.980000000000000 0.9986103134213 -66.03975199901 6.471732001e-11 -35.90383176763 6.471732001e-11 -35.90383176762 0.9986989036888 -61.84566934272
1.990000000000000 0.9986018388027 -66.44661324473 4.775566986e-11 31.287176368921 4.775566986e-11 31.287176368914 0.9986910851453 -62.21894805784
2.000000000000000 0.9985933439373 -66.85468594678 2.678014408e-11 36.409261950038 2.678014408e-11 36.409261950047 0.9986832481490 -62.59323421022
2.010000000000000 0.9985848287325 -67.26397864936 7.803146601e-11 -2.951120314734 7.803146601e-11 -2.951120314733 0.9986753925787 -62.96853508757
2.020000000000000 0.9985762931297 -67.67449992787 4.836891100e-11 29.428186306411 4.836891100e-11 29.428186306401 0.9986675183533 -63.34485799556
2.030000000000000 0.9985677370743 -68.08625838630 4.481051035e-11 58.859183227408 4.481051035e-11 58.859183227404 0.9986596254487 -63.72221028885
2.040000000000000 0.9985591607120 -68.49926265908 4.493402267e-11 29.280044745142 4.493402267e-11 29.280044745149 0.9986517138199 -64.10059935016
2.050000000000000 0.9985505638946 -68.91352140999 1.185809898e-11 -35.94501261263 1.185809898e-11 -35.94501261265 0.9986437832472 -64.48003259514
2.060000000000000 0.9985419466278 -69.32904333944 4.204981989e-11 -6.172375751974 4.204981989e-11 -6.172375751968 0.9986358338412 -64.86051748709
2.070000000000000 0.9985333088396 -69.74583717412 5.366058416e-11 8.3193242868940 5.366058416e-11 8.3193242868939 0.9986278654513 -65.24206152235
2.080000000000000 0.9985246506076 -70.16391167159 5.347347495e-11 30.340394743860 5.347347495e-11 30.340394743861 0.9986198779976 -65.62467222971
2.090000000000000 0.9985159718154 -70.58327562505 4.944224837e-11 30.347446585966 4.944224837e-11 30.347446585974 0.9986118713594 -66.00835718213
2.100000000000000 0.9985072724263 -71.00393786553 4.420039243e-11 -18.21509692592 4.420039243e-11 -18.21509692592 0.9986038454679 -66.39312399591
2.110000000000000 0.9984985525245 -71.42590722919 4.191363607e-11 14.308080101320 4.191363607e-11 14.308080101326 0.9985958002645 -66.77898031400
2.120000000000000 0.9984898120188 -71.84919261791 7.674263601e-11 12.869170331118 7.674263601e-11 12.869170331116 0.9985877356966 -67.16593382721