! Sonnet Data File
! From: em Version : 18.56
! From Project: N1000_0o1-100exp_0o05Cell_nd_nadap
! Data is De-embedded 
! Data File Written: 03/07/2023 07:09:06
!< HDATE 03/07/2023 06:37:38
!< MDATE 03/07/2023 06:37:38
# GHZ S MA R 50.00000
0.100000000000000 0.9999999312625 -3.800726799278
0.100693863147603 0.9999999300591 -3.827086357946
0.101392540755882 0.9999999288261 -3.853628557336
0.102096066230605 0.9999999275820 -3.880354660746
0.102804473209331 0.9999999263117 -3.907265938296
0.103517795563018 0.9999999250099 -3.934363670004
0.104236067397640 0.9999999236980 -3.961649143021
0.104959323055823 0.9999999223608 -3.989123653900
0.105687597118481 0.9999999210024 -4.016788509160
0.106420924406473 0.9999999196103 -4.044645022517
0.107159339982267 0.9999999181977 -4.072694518613
0.107902879151618 0.9999999167661 -4.100938328949
0.108651577465254 0.9999999152905 -4.129377795945
0.109405470720574 0.9999999138104 -4.158014271220
0.110164594963366 0.9999999122961 -4.186849113966
0.110928986489522 0.9999999107599 -4.215883693699
0.111698681846782 0.9999999091920 -4.245119389527
0.112473717836475 0.9999999075890 -4.274557589974
0.113254131515281 0.9999999059765 -4.304199692409
0.114039960197003 0.9999999043283 -4.334047104662
0.114831241454351 0.9999999026453 -4.364101243389
0.115628013120738 0.9999999009358 -4.394363533985
0.116430313292088 0.9999998991989 -4.424835414886
0.117238180328660 0.9999998974207 -4.455518330567
0.118051652856881 0.9999998956262 -4.486413737469
0.118870769771191 0.9999998937910 -4.517523101715
0.119695570235905 0.9999998919315 -4.548847898857
0.120526093687084 0.9999998900357 -4.580389615087
0.121362379834424 0.9999998881068 -4.612149746417
0.122204468663149 0.9999998861394 -4.644129799151
0.123052400435926 0.9999998841416 -4.676331289316
0.123906215694792 0.9999998821119 -4.708755744514
0.124765955263087 0.9999998800422 -4.741404701968
0.125631660247412 0.9999998779311 -4.774279708506
0.126503372039591 0.9999998757986 -4.807382323157
0.127381132318648 0.9999998736172 -4.840714115105
0.128264983052806 0.9999998714022 -4.874276662462
0.129154966501489 0.9999998691445 -4.908071556319
0.130051125217341 0.9999998668482 -4.942100397893
0.130953502048267 0.9999998645116 -4.976364799324
0.131862140139475 0.9999998621357 -5.010866382124
0.132777082935543 0.9999998597103 -5.045606781390
0.133698374182495 0.9999998572555 -5.080587641890
0.134626057929891 0.9999998547558 -5.115810619839
0.135560178532937 0.9999998522085 -5.151277381994
0.136500780654602 0.9999998496096 -5.186989607184
0.137447909267754 0.9999998469703 -5.222948986378
0.138401609657314 0.9999998442863 -5.259157220154
0.139361927422415 0.9999998415574 -5.295616021612
0.140328908478588 0.9999998387818 -5.332327115948
0.141302599059954 0.9999998359535 -5.369292238416
0.142283045721436 0.9999998330750 -5.406513138210
0.143270295340984 0.9999998301496 -5.443991574791
0.144264395121816 0.9999998271662 -5.481729319829
0.145265392594679 0.9999998241364 -5.519728157097
0.146273335620114 0.9999998210561 -5.557989881895
0.147288272390751 0.9999998179225 -5.596516303060
0.148310251433611 0.9999998147287 -5.635309240799
0.149339321612426 0.9999998114789 -5.674370526835
0.150375532129974 0.9999998081688 -5.713702005729
0.151418932530436 0.9999998048142 -5.753305536002
0.152469572701758 0.9999998013876 -5.793182985972
0.153527502878043 0.9999997979082 -5.833336238976
0.154592773641948 0.9999997943686 -5.873767190107
0.155665435927107 0.9999997907600 -5.914477746470
0.156745541020560 0.9999997870930 -5.955469828554
0.157833140565212 0.9999997833559 -5.996745370854
0.158928286562299 0.9999997795673 -6.038306319745
0.160031031373871 0.9999997757026 -6.080154634473
0.161141427725303 0.9999997717731 -6.122292287826
0.162259528707810 0.9999997677680 -6.164721265546
0.163385387780987 0.9999997637043 -6.207443568494
0.164519058775367 0.9999997595611 -6.250461207804
0.165660595894992 0.9999997553469 -6.293776210418
0.166810053720007 0.9999997510570 -6.337390616423
0.167967487209266 0.9999997466965 -6.381306478990
0.169132951702966 0.9999997422597 -6.425525865810
0.170306502925285 0.9999997377429 -6.470050857690
0.171488196987055 0.9999997331476 -6.514883549742
0.172678090388437 0.9999997284754 -6.560026051200
0.173876240021626 0.9999997237141 -6.605480484945
0.175082703173573 0.9999997188819 -6.651248988412
0.176297537528722 0.9999997139538 -6.697333713684
0.177520801171765 0.9999997089425 -6.743736826207
0.178752552590425 0.9999997038474 -6.790460506182
0.179992850678249 0.9999996986571 -6.837506948859
0.181241754737425 0.9999996933749 -6.884878363779
0.182499324481616 0.9999996880096 -6.932576975150
0.183765620038818 0.9999996825490 -6.980605021934
0.185040701954231 0.9999996769824 -7.028964758226
0.186324631193157 0.9999996713331 -7.077658452814
0.187617469143913 0.9999996655793 -7.126688389957
0.188919277620768 0.9999996597171 -7.176056867892
0.190230118866896 0.9999996537642 -7.225766201964
0.191550055557354 0.9999996476971 -7.275818721547
0.192879150802079 0.9999996415350 -7.326216771798
0.194217468148904 0.9999996352598 -7.376962713532
0.195565071586596 0.9999996288715 -7.428058922462
0.196922025547919 0.9999996223755 -7.479507790901
0.198288394912709 0.9999996157672 -7.531311726589
0.199664245010981 0.9999996090424 -7.583473153668
0.201049641626051 0.9999996021956 -7.635994510774
0.202444650997682 0.9999995952353 -7.688878254689
0.203849339825248 0.9999995881517 -7.742126856849
0.205263775270927 0.9999995809465 -7.795742805048
0.206688024962910 0.9999995736105 -7.849728604527
0.208122156998635 0.9999995661482 -7.904086775703
0.209566239948045 0.9999995585579 -7.958819856509
0.211020342856861 0.9999995508361 -8.013930400813
0.212484535249890 0.9999995429753 -8.069420979543
0.213958887134344 0.9999995349790 -8.125294180398
0.215443469003190 0.9999995268471 -8.181552608645
0.216938351838520 0.9999995185663 -8.238198885776
0.218443607114945 0.9999995101502 -8.295235650467
0.219959306803009 0.9999995015810 -8.352665558366
0.221485523372638 0.9999994928654 -8.410491283534
0.223022329796596 0.9999994839941 -8.468715516572
0.224569799553979 0.9999994749682 -8.527340965940
0.226128006633730 0.9999994657831 -8.586370357168
0.227697025538170 0.9999994564467 -8.645806434384
0.229276931286567 0.9999994469432 -8.705651959074
0.230867799418719 0.9999994372756 -8.765909709983
0.232469705998567 0.9999994274329 -8.826582485037
0.234082727617831 0.9999994174203 -8.887673099622
0.235706941399675 0.9999994072388 -8.949184387324
0.237342425002389 0.9999993968728 -9.011119200474
0.238989256623107 0.9999993863337 -9.073480408989
0.240647515001545 0.9999993756095 -9.136270901797
0.242317279423762 0.9999993646923 -9.199493586769
0.243998629725957 0.9999993535894 -9.263151389840
0.245691646298281 0.9999993422935 -9.327247256145
0.247396410088684 0.9999993308013 -9.391784149788
0.249113002606781 0.9999993191075 -9.456765052752
0.250841505927756 0.9999993072118 -9.522192968096
0.252582002696281 0.9999992951066 -9.588070916402
0.254334576130467 0.9999992827924 -9.654401938320
0.256099310025848 0.9999992702647 -9.721189093595
0.257876288759383 0.9999992575159 -9.788435461753
0.259665597293490 0.9999992445470 -9.856144141976
0.261467321180112 0.9999992313488 -9.924318252200
0.263281546564805 0.9999992179283 -9.992960931739
0.265108360190856 0.9999992042692 -10.06207533849
0.266947849403435 0.9999991903748 -10.13166465084
0.268800102153763 0.9999991762388 -10.20173206731
0.270665207003327 0.9999991618563 -10.27228080627
0.272543253128106 0.9999991472222 -10.34331410719
0.274434330322839 0.9999991323315 -10.41483522907
0.276338529005320 0.9999991171858 -10.48684745150
0.278255940220715 0.9999991017817 -10.55935407552
0.280186655645922 0.9999990860962 -10.63235842165
0.282130767593950 0.9999990701497 -10.70586383179
0.284088369018333 0.9999990539261 -10.77987366890
0.286059553517577 0.9999990374115 -10.85439131668
0.288044415339633 0.9999990206170 -10.92942018022
0.290043049386402 0.9999990035316 -11.00496368490
0.292055551218278 0.9999989861467 -11.08102527888
0.294082017058710 0.9999989684617 -11.15760842961
0.296122543798807 0.9999989504638 -11.23471662814
0.298177229001971 0.9999989321610 -11.31235338586
0.300246170908558 0.9999989135378 -11.39052223591
0.302329468440581 0.9999988945914 -11.46922673375
0.304427221206434 0.9999988753138 -11.54847045590
0.306539529505656 0.9999988557040 -11.62825700184
0.308666494333731 0.9999988357528 -11.70858999213
0.310808217386910 0.9999988154571 -11.78947306952
0.312964801067079 0.9999987948090 -11.87090989956
0.315136348486652 0.9999987738008 -11.95290416997
0.317322963473502 0.9999987524282 -12.03545959059
0.319524750575925 0.9999987306878 -12.11857989379
0.321741815067641 0.9999987085718 -12.20226883465
0.323974262952824 0.9999986860646 -12.28653019115
0.326222200971171 0.9999986631729 -12.37136776367
0.328485736603008 0.9999986398876 -12.45678537590
0.330764978074428 0.9999986161919 -12.54278687331
0.333060034362463 0.9999985920890 -12.62937612619
0.335371015200297 0.9999985675736 -12.71655702642
0.337698031082513 0.9999985426256 -12.80433348997
0.340041193270375 0.9999985172496 -12.89270945540
0.342400613797147 0.9999984914334 -12.98168888551
0.344776405473451 0.9999984651676 -13.07127576574
0.347168681892661 0.9999984384518 -13.16147410551
0.349577557436332 0.9999984112702 -13.25228793776
0.352003147279673 0.9999983836239 -13.34372131883
0.354445567397048 0.9999983554921 -13.43577832929
0.356904934567528 0.9999983268782 -13.52846307330
0.359381366380467 0.9999982977680 -13.62177967908
0.361874981241133 0.9999982681532 -13.71573229857
0.364385898376359 0.9999982380298 -13.81032510804
0.366914237840254 0.9999982073856 -13.90556230776
0.369460120519935 0.9999981762085 -14.00144812226
0.372023668141312 0.9999981444966 -14.09798680067
0.374605003274904 0.9999981122347 -14.19518261580
0.377204249341705 0.9999980794170 -14.29303986538
0.379821530619079 0.9999980460295 -14.39156287128
0.382456972246705 0.9999980120684 -14.49075598046
0.385110700232562 0.9999979775206 -14.59062356382
0.387782841458951 0.9999979423780 -14.69117001727
0.390473523688562 0.9999979066270 -14.79239976170
0.393182875570582 0.9999978702612 -14.89431724198
0.395911026646852 0.9999978332687 -14.99692692868
0.398658107358050 0.9999977956340 -15.10023331672
0.401424249049938 0.9999977573539 -15.20424092610
0.404209583979637 0.9999977184150 -15.30895430192
0.407014245321950 0.9999976788019 -15.41437801422
0.409838367175732 0.9999976385091 -15.52051665806
0.412682084570301 0.9999975975234 -15.62737485360
0.415545533471894 0.9999975558296 -15.73495724648
0.418428850790164 0.9999975134202 -15.84326850720
0.421332174384735 0.9999974702775 -15.95231333119
0.424255643071784 0.9999974263973 -16.06209644025
0.427199396630684 0.9999973817576 -16.17262258022
0.430163575810686 0.9999973363546 -16.28389652287
0.433148322337647 0.9999972901667 -16.39592306546
0.436153778920807 0.9999972431872 -16.50870703020
0.439180089259615 0.9999971954002 -16.62225326547
0.442227398050597 0.9999971467904 -16.73656664366
0.445295850994272 0.9999970973497 -16.85165206411
0.448385594802126 0.9999970470572 -16.96751445070
0.451496777203617 0.9999969959019 -17.08415875291
0.454629546953247 0.9999969438669 -17.20158994610
0.457784053837669 0.9999968909427 -17.31981303033
0.460960448682851 0.9999968371080 -17.43883303178
0.464158883361285 0.9999967823513 -17.55865500195
0.467379510799254 0.9999967266554 -17.67928401737
0.470622484984136 0.9999966700050 -17.80072518053
0.473887960971773 0.9999966123862 -17.92298361917
0.477176094893882 0.9999965537789 -18.04606448632
0.480487043965521 0.9999964941672 -18.16997296041
0.483820966492603 0.9999964335373 -18.29471424531
0.487178021879471 0.9999963718687 -18.42029357064
0.490558370636513 0.9999963091453 -18.54671619024
0.493962174387840 0.9999962453502 -18.67398738418
0.497389595879015 0.9999961804629 -18.80211245745
0.500840798984829 0.9999961144656 -18.93109674009
0.504315948717144 0.9999960473430 -19.06094558755
0.507815211232776 0.9999959790768 -19.19166438003
0.511338753841441 0.9999959096391 -19.32325852317
0.514886745013758 0.9999958390183 -19.45573344669
0.518459354389300 0.9999957671944 -19.58909460630
0.522056752784706 0.9999956941462 -19.72334748193
0.525679112201851 0.9999956198501 -19.85849757857
0.529326605836065 0.9999955442912 -19.99455042536
0.532999408084418 0.9999954674410 -20.13151157627
0.536697694554057 0.9999953892850 -20.26938660984
0.540421642070601 0.9999953097974 -20.40818112894
0.544171428686599 0.9999952289553 -20.54790076070
0.547947233690038 0.9999951467408 -20.68855115659
0.551749237612922 0.9999950631278 -20.83013799165
0.555577622239898 0.9999949780926 -20.97266696548
0.559432570616948 0.9999948916144 -21.11614380105
0.563314267060146 0.9999948036666 -21.26057424517
0.567222897164465 0.9999947142235 -21.40596406815
0.571158647812654 0.9999946232659 -21.55231906376
0.575121707184172 0.9999945307654 -21.69964504920
0.579112264764187 0.9999944366946 -21.84794786440
0.583130511352633 0.9999943410291 -21.99723337230
0.587176639073336 0.9999942437434 -22.14750745889
0.591250841383199 0.9999941448125 -22.29877603252
0.595353313081448 0.9999940442044 -22.45104502412
0.599484250318952 0.9999939418966 -22.60432038647
0.603643850607598 0.9999938378561 -22.75860809485
0.607832312829735 0.9999937320598 -22.91391414623
0.612049837247682 0.9999936244746 -23.07024455895
0.616296625513306 0.9999935150731 -23.22760537300
0.620572880677662 0.9999934038260 -23.38600264955
0.624878807200702 0.9999932907016 -23.54544247030
0.629214610961047 0.9999931756693 -23.70593093830
0.633580499265838 0.9999930586981 -23.86747417668
0.637976680860641 0.9999929397567 -24.03007832865
0.642403365939432 0.9999928188136 -24.19374955759
0.646860766154646 0.9999926958346 -24.35849404661
0.651349094627294 0.9999925707877 -24.52431799778
0.655868565957157 0.9999924436396 -24.69122763280
0.660419396233044 0.9999923143550 -24.85922919159
0.665001803043126 0.9999921828977 -25.02832893281
0.669616005485336 0.9999920492351 -25.19853313353
0.674262224177848 0.9999919133323 -25.36984808832
0.678940681269625 0.9999917751489 -25.54228010945
0.683651600451038 0.9999916346539 -25.71583552609
0.688395206964564 0.9999914918046 -25.89052068443
0.693171727615555 0.9999913465668 -26.06634194722
0.697981390783081 0.9999911988977 -26.24330569277
0.702824426430850 0.9999910487616 -26.42141831580
0.707701066118204 0.9999908961162 -26.60068622567
0.712611543011190 0.9999907409234 -26.78111584700
0.717556091893708 0.9999905831426 -26.96271361873
0.722534949178737 0.9999904227294 -27.14548599398
0.727548352919639 0.9999902596461 -27.32943943948
0.732596542821539 0.9999900938474 -27.51458043502
0.737679760252789 0.9999899252885 -27.70091547304
0.742798248256508 0.9999897539273 -27.88845105852
0.747952251562199 0.9999895797178 -28.07719370803
0.753142016597454 0.9999894026151 -28.26714994937
0.758367791499736 0.9999892225748 -28.45832632126
0.763629826128241 0.9999890395492 -28.65072937271
0.768928372075848 0.9999888534899 -28.84436566222
0.774263682681144 0.9999886643508 -29.03924175800
0.779636013040541 0.9999884720810 -29.23536423645
0.785045620020468 0.9999882766310 -29.43273968224
0.790492762269660 0.9999880779535 -29.63137468784
0.795977700231516 0.9999878759950 -29.83127585209
0.801500696156559 0.9999876707045 -30.03244978101
0.807062014114969 0.9999874620321 -30.23490308566
0.812661920009213 0.9999872499212 -30.43864238264
0.818300681586758 0.9999870343172 -30.64367429275
0.823978568452871 0.9999868151702 -30.85000544110
0.829695852083510 0.9999865924205 -31.05764245567
0.835452805838306 0.9999863660139 -31.26659196704
0.841249704973631 0.9999861358932 -31.47686060779
0.847086826655760 0.9999859020007 -31.68845501141
0.852964449974122 0.9999856642762 -31.90138181209
0.858882855954645 0.9999854226638 -32.11564764351
0.864842327573192 0.9999851770996 -32.33125913868
0.870843149769093 0.9999849275251 -32.54822292847
0.876885609458764 0.9999846738767 -32.76654564163
0.882969995549430 0.9999844160933 -32.98623390330
0.889096598952937 0.9999841541101 -33.20729433462
0.895265712599661 0.9999838878623 -33.42973355206
0.901477631452513 0.9999836172848 -33.65355816603
0.907732652521044 0.9999833423135 -33.87877478088
0.914031074875645 0.9999830628788 -34.10538999304
0.920373199661844 0.9999827789128 -34.33341039115
0.926759330114710 0.9999824903466 -34.56284255470
0.933189771573346 0.9999821971110 -34.79369305311
0.939664831495492 0.9999818991348 -35.02596844483
0.946184819472223 0.9999815963479 -35.25967527682
0.952750047242752 0.9999812886740 -35.49482008305
0.959360828709338 0.9999809760414 -35.73140938408
0.966017479952288 0.9999806583756 -35.96944968571
0.972720319245078 0.9999803356020 -36.20894747819
0.979469667069564 0.9999800076422 -36.44990923539
0.986265846131307 0.9999796744184 -36.69234141351
0.993109181375004 0.9999793358536 -36.93625045028
1.000000000000020 0.9999789918666 -37.18164276392
1.006938631476050 0.9999786423790 -37.42852475198
1.013925407558840 0.9999782873064 -37.67690279043
1.020960662306070 0.9999779265677 -37.92678323264
1.028044732093340 0.9999775600783 -38.17817240809
1.035177955630200 0.9999771877536 -38.43107662162
1.042360673976430 0.9999768095083 -38.68550215202
1.049593230558250 0.9999764252543 -38.94145525097
1.056875971184830 0.9999760349042 -39.19894214241
1.064209244064750 0.9999756383696 -39.45796902052
1.071593399822700 0.9999752355592 -39.71854204926
1.079028791516210 0.9999748263803 -39.98066736118
1.086515774652570 0.9999744107440 -40.24435105590
1.094054707205770 0.9999739885532 -40.50959919927
1.101645949633690 0.9999735597143 -40.77641782192
1.109289864895250 0.9999731241321 -41.04481291843
1.116986818467850 0.9999726817086 -41.31479044551
1.124737178364780 0.9999722323453 -41.58635632165
1.132541315152840 0.9999717759449 -41.85951642501
1.140399601970060 0.9999713124058 -42.13427659280
1.148312414543540 0.9999708416238 -42.41064261995
1.156280131207410 0.9999703634990 -42.68862025733
1.164303132920910 0.9999698779266 -42.96821521143
1.172381803286630 0.9999693847991 -43.24943314216
1.180516528568840 0.9999688840131 -43.53227966223
1.188707697711940 0.9999683754587 -43.81676033554
1.196955702359080 0.9999678590270 -44.10288067603
1.205260936870870 0.9999673346083 -44.39064614625
1.213623798344270 0.9999668020912 -44.68006215647
1.222044686631520 0.9999662613622 -44.97113406275
1.230524004359300 0.9999657123084 -45.26386716619
1.239062156947950 0.9999651548128 -45.55826671139
1.247659552630900 0.9999645887576 -45.85433788502
1.256316602474150 0.9999640140294 -46.15208581492
1.265033720395940 0.9999634305052 -46.45151556831
1.273811323186510 0.9999628380671 -46.75263215092
1.282649830528100 0.9999622365896 -47.05544050527
1.291549665014920 0.9999616259527 -47.35994550978
1.300511252173440 0.9999610060312 -47.66615197712
1.309535020482700 0.9999603766998 -47.97406465315
1.318621401394790 0.9999597378294 -48.28368821534
1.327770829355470 0.9999590892934 -48.59502727199
1.336983741824980 0.9999584309611 -48.90808636027
1.346260579298950 0.9999577627014 -49.22286994565
1.355601785329410 0.9999570843823 -49.53938241997
1.365007806546050 0.9999563958692 -49.85762810075
1.374479092677580 0.9999556970278 -50.17761122943
1.384016096573170 0.9999549877198 -50.49933597066
1.393619274224180 0.9999542678078 -50.82280641050
1.403289084785910 0.9999535371530 -51.14802655573
1.413025990599570 0.9999527956135 -51.47500033223
1.422830457214390 0.9999520430479 -51.80373158419
1.432702953409870 0.9999512793119 -52.13422407268
1.442643951218200 0.9999505042606 -52.46648147443
1.452653925946820 0.9999497177474 -52.80050738097
1.462733356201170 0.9999489196236 -53.13630529733
1.472882723907540 0.9999481097402 -53.47387864106
1.483102514336150 0.9999472879471 -53.81323074104
1.493393216124300 0.9999464540908 -54.15436483666
1.503755321299780 0.9999456080170 -54.49728407650
1.514189325304400 0.9999447495720 -54.84199151759
1.524695727017620 0.9999438785976 -55.18849012444
1.535275028780470 0.9999429949368 -55.53678276806
1.545927736419520 0.9999420984282 -55.88687222495
1.556654359271110 0.9999411889107 -56.23876117653
1.567455410205640 0.9999402662224 -56.59245220812
1.578331405652160 0.9999393301982 -56.94794780816
1.589282865623020 0.9999383806722 -57.30525036768
1.600310313738750 0.9999374174772 -57.66436217925
1.611414277253070 0.9999364404440 -58.02528543660
1.622595287078140 0.9999354494016 -58.38802223391
1.633853877809910 0.9999344441781 -58.75257456540
1.645190587753710 0.9999334245999 -59.11894432452
1.656605958949960 0.9999323904911 -59.48713330381
1.668100537200110 0.9999313416753 -59.85714319423
1.679674872092700 0.9999302779733 -60.22897558500
1.691329517029700 0.9999291992043 -60.60263196325
1.703065029252900 0.9999281051878 -60.97811371368
1.714881969870590 0.9999269957396 -61.35542211862
1.726780903884410 0.9999258706736 -61.73455835773
1.738762400216300 0.9999247298035 -62.11552350791
1.750827031735780 0.9999235729411 -62.49831854353
1.762975375287260 0.9999223998940 -62.88294433656
1.775208011717690 0.9999212104720 -63.26940165643
1.787525525904290 0.9999200044796 -63.65769117049
1.799928506782530 0.9999187817219 -64.04781344440
1.812417547374290 0.9999175420006 -64.43976894248
1.824993244816210 0.9999162851172 -64.83355802818
1.837656200388230 0.9999150108696 -65.22918096457
1.850407019542360 0.9999137190539 -65.62663791523
1.863246311931620 0.9999124094663 -66.02592894476
1.876174691439180 0.9999110818985 -66.42705401982
1.889192776207730 0.9999097361422 -66.83001301010
1.902301188669000 0.9999083719851 -67.23480568935
1.915500555573590 0.9999069892160 -67.64143173623
1.928791508020840 0.9999055876179 -68.04989073603
1.942174681489090 0.9999041669745 -68.46018218180
1.955650715866010 0.9999027270653 -68.87230547575
1.969220255479230 0.9999012676696 -69.28625993116
1.982883949127130 0.9998997885628 -69.70204477384
1.996642450109860 0.9998982895187 -70.11965914381
2.010496416260560 0.9998967703088 -70.53910209777
2.024446509976870 0.9998952307027 -70.96037261075
2.038493398252530 0.9998936704665 -71.38346957829
2.052637752709320 0.9998920893645 -71.80839181928
2.066880249629150 0.9998904871585 -72.23513807779
2.081221569986410 0.9998888636077 -72.66370702633
2.095662399480500 0.9998872184678 -73.09409726800
2.110203428568660 0.9998855514929 -73.52630733995
2.124845352498950 0.9998838624343 -73.96033571610
2.139588871343490 0.9998821510394 -74.39618081044
2.154434690031950 0.9998804170544 -74.83384098056
2.169383518385260 0.9998786602199 -75.27331453090
2.184436071149500 0.9998768802757 -75.71459971671
2.199593068030150 0.9998750769576 -76.15769474779
2.214855233726430 0.9998732499983 -76.60259779268
2.230223297966010 0.9998713991267 -77.04930698256
2.245697995539850 0.9998695240693 -77.49782041594
2.261280066337350 0.9998676245474 -77.94813616326
2.276970255381760 0.9998657002801 -78.40025227149
2.292769312865730 0.9998637509821 -78.85416676912
2.308677994187250 0.9998617763642 -79.30987767153
2.324697059985730 0.9998597761334 -79.76738298608
2.340827276178370 0.9998577499925 -80.22668071773
2.357069413996810 0.9998556976401 -80.68776887512
2.373424250023950 0.9998536187702 -81.15064547619
2.389892566231130 0.9998515130723 -81.61530855462
2.406475150015510 0.9998493802315 -82.08175616605
2.423172794237680 0.9998472199273 -82.54998639513
2.439986297259630 0.9998450318352 -83.01999736207
2.456916462982870 0.9998428156251 -83.49178722982
2.473964100886900 0.9998405709610 -83.96535421175
2.491130026067870 0.9998382975022 -84.44069657902
2.508415059277630 0.9998359949021 -84.91781266851
2.525820026962870 0.9998336628071 -85.39670089114
2.543345761304740 0.9998313008595 -85.87735974005
2.560993100258550 0.9998289086933 -86.35978779958
2.578762887593890 0.9998264859369 -86.84398375405
2.596655972934960 0.9998240322120 -87.32994639719
2.614673211801180 0.9998215471327 -87.81767464152
2.632815465648110 0.9998190303060 -88.30716752845
2.651083601908630 0.9998164813313 -88.79842423824
2.669478494034410 0.9998138998005 -89.29144410065
2.688001021537700 0.9998112852970 -89.78622660577
2.706652070033340 0.9998086373960 -90.28277141498
2.725432531281130 0.9998059556635 -90.78107837272
2.744343303228460 0.9998032396573 -91.28114751822
2.763385290053270 0.9998004889251 -91.78297909754
2.782559402207220 0.9997977030047 -92.28657357622
2.801866556459290 0.9997948814248 -92.79193165262
2.821307675939570 0.9997920237029 -93.29905427064
2.840883690183400 0.9997891293456 -93.80794263386
2.860595535175840 0.9997861978484 -94.31859821962
2.880444153396400 0.9997832286952 -94.83102279350
2.900430493864100 0.9997802213577 -95.34521842435
2.920555512182850 0.9997771752955 -95.86118749987
2.940820170587170 0.9997740899541 -96.37893274232
2.961225437988140 0.9997709647664 -96.89845722493
2.981772290019781 0.9997677991511 -97.41976438907
3.002461709085660 0.9997645925119 -97.94285806132
3.023294684405890 0.9997613442377 -98.46774247120
3.044272212064410 0.9997580537018 -98.99442227024
3.065395295056641 0.9997547202612 -99.52290255035
3.086664943337390 0.9997513432557 -100.0531888636
3.108082173869180 0.9997479220075 -100.5852872424
3.129648010670870 0.9997444558213 -101.1192042204
3.151363484866590 0.9997409439824 -101.6549468533
3.173229634735090 0.9997373857560 -102.1925227417
3.195247505759330 0.9997337803881 -102.7319400534
3.217418150676490 0.9997301271021 -103.2732075463
3.239742629528320 0.9997264251006 -103.8163345940
3.262222009711790 0.9997226735628 -104.3613312089
3.284857366030170 0.9997188716445 -104.9082080695
3.307649780744360 0.9997150184765 -105.4569765458
3.330600343624710 0.9997111131642 -106.0076487272
3.353710152003060 0.9997071547867 -106.5602374503
3.376980310825220 0.9997031423951 -107.1147563287
3.400411932703830 0.9996990750121 -107.6712197824
3.424006137971550 0.9996949516304 -108.2296430692
3.447764054734590 0.9996907712122 -108.7900423167
3.471686818926691 0.9996865326868 -109.3524345556
3.495775574363410 0.9996822349507 -109.9168377537
3.520031472796811 0.9996778768655 -110.4832708519
3.544455673970570 0.9996734572565 -111.0517537999
3.569049345675360 0.9996689749117 -111.6223075951
3.593813663804760 0.9996644285798 -112.1949543213
3.618749812411420 0.9996598169693 -112.7697171896
3.643858983763680 0.9996551387458 -113.3466205802
3.669142378402630 0.9996503925318 -113.9256900859
3.694601205199440 0.9996455769035 -114.5069525577
3.720236681413210 0.9996406903900 -115.0904361512
3.746050032749140 0.9996357314708 -115.6761703750
3.772042493417140 0.9996306985739 -116.2641861415
3.798215306190880 0.9996255900738 -116.8545158187
3.824569722467150 0.9996204042893 -117.4471932845
3.851107002325720 0.9996151394811 -118.0422539830
3.877828414589610 0.9996097938495 -118.6397349826
3.904735236885710 0.9996043655320 -119.2396750375
3.931828755705920 0.9995988526004 -119.8421146499
3.959110266468610 0.9995932530582 -120.4470961363
3.986581073580600 0.9995875648380 -121.0546636953
4.014242490499480 0.9995817857981 -121.6648634790
4.042095839796470 0.9995759137194 -122.2777436666
4.070142453219600 0.9995699463025 -122.8933545418
4.098383671757420 0.9995638811638 -123.5117485726
4.126820845703120 0.9995577158323 -124.1329804956
4.155455334719040 0.9995514477454 -124.7571074020
4.184288507901750 0.9995450742453 -125.3841888300
4.213321743847450 0.9995385925745 -126.0142868587
4.242556430717950 0.9995319998722 -126.6474662073
4.271993966306950 0.9995252931684 -127.2837943387
4.301635758106970 0.9995184693805 -127.9233415677
4.331483223376570 0.9995115253073 -128.5661811738
4.361537789208181 0.9995044576243 -129.2123895107
4.391800892596260 0.9994972628779 -129.8620461634
4.422273980506080 0.9994899374794 -130.5152340276
4.452958509942830 0.9994824776992 -131.1720394779
4.483855948021370 0.9994748796601 -131.8325525014
4.514967772036280 0.9994671393308 -132.4968668461
4.546295469532581 0.9994592525184 -133.1650801764
4.577840538376800 0.9994512148614 -133.8372942362
4.609604486828620 0.9994430218212 -134.5136150200
4.641588833612970 0.9994346686743 -135.1941529521
4.673795107992651 0.9994261505034 -135.8790230757
4.706224849841470 0.9994174621881 -136.5683452498
4.738879609717850 0.9994085983952 -137.2622443579
4.771760948938940 0.9993995535686 -137.9608505219
4.804870439655330 0.9993903219185 -138.6642993486
4.838209664926160 0.9993808974101 -139.3727321462
4.871780218794830 0.9993712737514 -140.0862961952
4.905583706365250 0.9993614443806 -140.8051450117
4.939621743878520 0.9993514024532 -141.5294386296
4.973895958790270 0.9993411408273 -142.2593438970
5.008407989848420 0.9993306520492 -142.9950347895
5.043159487171570 0.9993199283379 -143.7366927394
5.078152112327890 0.9993089615680 -144.4845069845
5.113387538414541 0.9992977432527 -145.2386749342
5.148867450137710 0.9992862645252 -145.9994025553
5.184593543893131 0.9992745161194 -146.7669047898
5.220567527847201 0.9992624883492 -147.5414059738
5.256791122018640 0.9992501710870 -148.3231403026
5.293266058360780 0.9992375537406 -149.1123523114
5.329994080844321 0.9992246252291 -149.9092973858
5.366976945540700 0.9992113739574 -150.7142423014
5.404216420706151 0.9991977877893 -151.5274657953
5.441714286866120 0.9991838540186 -152.3492591705
5.479472336900520 0.9991695593399 -153.1799269369
5.517492376129360 0.9991548898160 -154.0197874888
5.555776222399111 0.9991398308450 -154.8691738225
5.594325706169620 0.9991243671249 -155.7284343036
5.633142670601600 0.9991084826164 -156.5979334660
5.672228971644790 0.9990921605038 -157.4780528743
5.711586478126681 0.9990753831535 -158.3691920301
5.751217071841860 0.9990581320712 -159.2717693362
5.791122647642010 0.9990403878557 -160.1862231190
5.831305113526480 0.9990221301515 -161.1130127146
5.871766390733510 0.9990033375983 -162.0526196207
5.912508413832140 0.9989839877787 -163.0055487205
5.953533130814630 0.9989640571631 -163.9723295812
5.994842503189670 0.9989435210524 -164.9535178367
6.036438506076130 0.9989223535182 -165.9496966487
6.078323128297500 0.9989005273411 -166.9614782651