! Sonnet Data File
! From: em Version : 18.56
! From Project: N1000_0o1-100exp_nd_nadap
! Data is De-embedded 
! Data File Written: 03/05/2023 08:22:15
!< HDATE 03/04/2023 10:23:07
!< MDATE 03/04/2023 10:23:07
# GHZ S MA R 50.00000
0.100000000000000 0.9999999258204 -4.018824637090
0.100693863147603 0.9999999245322 -4.046693987288
0.101392540755882 0.9999999231774 -4.074756380120
0.102096066230605 0.9999999218269 -4.103013150242
0.102804473209331 0.9999999204438 -4.131465637692
0.103517795563018 0.9999999190232 -4.160115196999
0.104236067397640 0.9999999175991 -4.188963182698
0.104959323055823 0.9999999161389 -4.218010967864
0.105687597118481 0.9999999146582 -4.247259930606
0.106420924406473 0.9999999131620 -4.276711457639
0.107159339982267 0.9999999116176 -4.306366948343
0.107902879151618 0.9999999100513 -4.336227808573
0.108651577465254 0.9999999084766 -4.366295454882
0.109405470720574 0.9999999068558 -4.396571313536
0.110164594963366 0.9999999052096 -4.427056821809
0.110928986489522 0.9999999035322 -4.457753423258
0.111698681846782 0.9999999018330 -4.488662575193
0.112473717836475 0.9999999001005 -4.519785742982
0.113254131515281 0.9999998983362 -4.551124402152
0.114039960197003 0.9999998965316 -4.582680036511
0.114831241454351 0.9999998947044 -4.614454146759
0.115628013120738 0.9999998928453 -4.646448231859
0.116430313292088 0.9999998909552 -4.678663812768
0.117238180328660 0.9999998890255 -4.711102414542
0.118051652856881 0.9999998870633 -4.743765572506
0.118870769771191 0.9999998850742 -4.776654836061
0.119695570235905 0.9999998830520 -4.809771761931
0.120526093687084 0.9999998809809 -4.843117918701
0.121362379834424 0.9999998788739 -4.876694884292
0.122204468663149 0.9999998767350 -4.910504248545
0.123052400435926 0.9999998745609 -4.944547614840
0.123906215694792 0.9999998723415 -4.978826590084
0.124765955263087 0.9999998700875 -5.013342799172
0.125631660247412 0.9999998677947 -5.048097873511
0.126503372039591 0.9999998654602 -5.083093459136
0.127381132318648 0.9999998630926 -5.118331210359
0.128264983052806 0.9999998606677 -5.153812793660
0.129154966501489 0.9999998582153 -5.189539887833
0.130051125217341 0.9999998557036 -5.225514180969
0.130953502048267 0.9999998531567 -5.261737375317
0.131862140139475 0.9999998505734 -5.298211181094
0.132777082935543 0.9999998479407 -5.334937322081
0.133698374182495 0.9999998452625 -5.371917535769
0.134626057929891 0.9999998425207 -5.409153566683
0.135560178532937 0.9999998397405 -5.446647176603
0.136500780654602 0.9999998369085 -5.484400132201
0.137447909267754 0.9999998340409 -5.522414219325
0.138401609657314 0.9999998311105 -5.560691232260
0.139361927422415 0.9999998281268 -5.599232977608
0.140328908478588 0.9999998250948 -5.638041272165
0.141302599059954 0.9999998220082 -5.677117949235
0.142283045721436 0.9999998188723 -5.716464853419
0.143270295340984 0.9999998156736 -5.756083837589
0.144264395121816 0.9999998124175 -5.795976772295
0.145265392594679 0.9999998091071 -5.836145537621
0.146273335620114 0.9999998057446 -5.876592027721
0.147288272390751 0.9999998023130 -5.917318148437
0.148310251433611 0.9999997988332 -5.958325817938
0.149339321612426 0.9999997952832 -5.999616971321
0.150375532129974 0.9999997916642 -6.041193549636
0.151418932530436 0.9999997879978 -6.083057513583
0.152469572701758 0.9999997842605 -6.125210832370
0.153527502878043 0.9999997804628 -6.167655492459
0.154592773641948 0.9999997765843 -6.210393488778
0.155665435927107 0.9999997726521 -6.253426833382
0.156745541020560 0.9999997686346 -6.296757550809
0.157833140565212 0.9999997645627 -6.340387679592
0.158928286562299 0.9999997604092 -6.384319270293
0.160031031373871 0.9999997561845 -6.428554388073
0.161141427725303 0.9999997518896 -6.473095112023
0.162259528707810 0.9999997475148 -6.517943535211
0.163385387780987 0.9999997430662 -6.563101763612
0.164519058775367 0.9999997385434 -6.608571918509
0.165660595894992 0.9999997339239 -6.654356135982
0.166810053720007 0.9999997292363 -6.700456563797
0.167967487209266 0.9999997244699 -6.746875364220
0.169132951702966 0.9999997196168 -6.793614717070
0.170306502925285 0.9999997146762 -6.840676814901
0.171488196987055 0.9999997096496 -6.888063861679
0.172678090388437 0.9999997045337 -6.935778081025
0.173876240021626 0.9999996993280 -6.983821707907
0.175082703173573 0.9999996940313 -7.032196994941
0.176297537528722 0.9999996886455 -7.080906205784
0.177520801171765 0.9999996831536 -7.129951623701
0.178752552590425 0.9999996775762 -7.179335541637
0.179992850678249 0.9999996718928 -7.229060272562
0.181241754737425 0.9999996661176 -7.279128142627
0.182499324481616 0.9999996602413 -7.329541492424
0.183765620038818 0.9999996542652 -7.380302680518
0.185040701954231 0.9999996481690 -7.431414077570
0.186324631193157 0.9999996419734 -7.482878073520
0.187617469143913 0.9999996356702 -7.534697071301
0.188919277620768 0.9999996292583 -7.586873491829
0.190230118866896 0.9999996227334 -7.639409767962
0.191550055557354 0.9999996160917 -7.692308353133
0.192879150802079 0.9999996093331 -7.745571714825
0.194217468148904 0.9999996024576 -7.799202337687
0.195565071586596 0.9999995954617 -7.853202719278
0.196922025547919 0.9999995883426 -7.907575378611
0.198288394912709 0.9999995810944 -7.962322846873
0.199664245010981 0.9999995737191 -8.017447672802
0.201049641626051 0.9999995662223 -8.072952423698
0.202444650997682 0.9999995585964 -8.128839682537
0.203849339825248 0.9999995508310 -8.185112047191
0.205263775270927 0.9999995429290 -8.241772134269
0.206688024962910 0.9999995348918 -8.298822578741
0.208122156998635 0.9999995267052 -8.356266029510
0.209566239948045 0.9999995183798 -8.414105154947
0.211020342856861 0.9999995099119 -8.472342638953
0.212484535249890 0.9999995012847 -8.530981185107
0.213958887134344 0.9999994925220 -8.590023513297
0.215443469003190 0.9999994835990 -8.649472357955
0.216938351838520 0.9999994745239 -8.709330478204
0.218443607114945 0.9999994652846 -8.769600644111
0.219959306803009 0.9999994558862 -8.830285646669
0.221485523372638 0.9999994463174 -8.891388294490
0.223022329796596 0.9999994365870 -8.952911414716
0.224569799553979 0.9999994266826 -9.014857850443
0.226128006633730 0.9999994166031 -9.077230467048
0.227697025538170 0.9999994063559 -9.140032143218
0.229276931286567 0.9999993959167 -9.203265781156
0.230867799418719 0.9999993853050 -9.266934296804
0.232469705998567 0.9999993745044 -9.331040627856
0.234082727617831 0.9999993635093 -9.395587730531
0.235706941399675 0.9999993523272 -9.460578576911
0.237342425002389 0.9999993409575 -9.526016162220
0.238989256623107 0.9999993293789 -9.591903498599
0.240647515001545 0.9999993176009 -9.658243616082
0.242317279423762 0.9999993056144 -9.725039565981
0.243998629725957 0.9999992934256 -9.792294418146
0.245691646298281 0.9999992810130 -9.860011260786
0.247396410088684 0.9999992683886 -9.928193203061
0.249113002606781 0.9999992555502 -9.996843373771
0.250841505927756 0.9999992424784 -10.06596492006
0.252582002696281 0.9999992291802 -10.13556100860
0.254334576130467 0.9999992156501 -10.20563482828
0.256099310025848 0.9999992018865 -10.27618958563
0.257876288759383 0.9999991878851 -10.34722850811
0.259665597293490 0.9999991736256 -10.41875484317
0.261467321180112 0.9999991591325 -10.49077185856
0.263281546564805 0.9999991443722 -10.56328284275
0.265108360190856 0.9999991293658 -10.63629110343
0.266947849403435 0.9999991140870 -10.70979997052
0.268800102153763 0.9999990985490 -10.78381279272
0.270665207003327 0.9999990827429 -10.85833294044
0.272543253128106 0.9999990666501 -10.93336380475
0.274434330322839 0.9999990502863 -11.00890879718
0.276338529005320 0.9999990336311 -11.08497135160
0.278255940220715 0.9999990166945 -11.16155492048
0.280186655645922 0.9999989994560 -11.23866297996
0.282130767593950 0.9999989819188 -11.31629902597
0.284088369018333 0.9999989640716 -11.39446657552
0.286059553517577 0.9999989459116 -11.47316916871
0.288044415339633 0.9999989274484 -11.55241036464
0.290043049386402 0.9999989086555 -11.63219374590
0.292055551218278 0.9999988895279 -11.71252291617
0.294082017058710 0.9999988700753 -11.79340150138
0.296122543798807 0.9999988502828 -11.87483314749
0.298177229001971 0.9999988301452 -11.95682152492
0.300246170908558 0.9999988096598 -12.03937032408
0.302329468440581 0.9999987888079 -12.12248325935
0.304427221206434 0.9999987676051 -12.20616406461
0.306539529505656 0.9999987460297 -12.29041649894
0.308666494333731 0.9999987240720 -12.37524434123
0.310808217386910 0.9999987017429 -12.46065139502
0.312964801067079 0.9999986790132 -12.54664148400
0.315136348486652 0.9999986558986 -12.63321845671
0.317322963473502 0.9999986323784 -12.72038618228
0.319524750575925 0.9999986084482 -12.80814855440
0.321741815067641 0.9999985841086 -12.89650948767
0.323974262952824 0.9999985593382 -12.98547292147
0.326222200971171 0.9999985341397 -13.07504281707
0.328485736603008 0.9999985085053 -13.16522315855
0.330764978074428 0.9999984824213 -13.25601795339
0.333060034362463 0.9999984558886 -13.34743123214
0.335371015200297 0.9999984288963 -13.43946704889
0.337698031082513 0.9999984014354 -13.53212948089
0.340041193270375 0.9999983734924 -13.62542262761
0.342400613797147 0.9999983450675 -13.71935061455
0.344776405473451 0.9999983161524 -13.81391758700
0.347168681892661 0.9999982867306 -13.90912771691
0.349577557436332 0.9999982568013 -14.00498519901
0.352003147279673 0.9999982263541 -14.10149425063
0.354445567397048 0.9999981953815 -14.19865911290
0.356904934567528 0.9999981638686 -14.29648405228
0.359381366380467 0.9999981318093 -14.39497335857
0.361874981241133 0.9999980991913 -14.49413134343
0.364385898376359 0.9999980660139 -14.59396234446
0.366914237840254 0.9999980322617 -14.69447072196
0.369460120519935 0.9999979979221 -14.79566086227
0.372023668141312 0.9999979629932 -14.89753717327
0.374605003274904 0.9999979274546 -15.00010408760
0.377204249341705 0.9999978913057 -15.10336606286
0.379821530619079 0.9999978545266 -15.20732758104
0.382456972246705 0.9999978171128 -15.31199314634
0.385110700232562 0.9999977790582 -15.41736728803
0.387782841458951 0.9999977403411 -15.52345456080
0.390473523688562 0.9999977009534 -15.63025954245
0.393182875570582 0.9999976608914 -15.73778683521
0.395911026646852 0.9999976201353 -15.84604106604
0.398658107358050 0.9999975786744 -15.95502688499
0.401424249049938 0.9999975365000 -16.06474896831
0.404209583979637 0.9999974935945 -16.17521201478
0.407014245321950 0.9999974499493 -16.28642074868
0.409838367175732 0.9999974055513 -16.39837991869
0.412682084570301 0.9999973603928 -16.51109429625
0.415545533471894 0.9999973144517 -16.62456867916
0.418428850790164 0.9999972677212 -16.73880788968
0.421332174384735 0.9999972201814 -16.85381677132
0.424255643071784 0.9999971718273 -16.96960019621
0.427199396630684 0.9999971226443 -17.08616305764
0.430163575810686 0.9999970726063 -17.20351027439
0.433148322337647 0.9999970217095 -17.32164678948
0.436153778920807 0.9999969699418 -17.44057757048
0.439180089259615 0.9999969172781 -17.56030760810
0.442227398050597 0.9999968637145 -17.68084191926
0.445295850994272 0.9999968092300 -17.80218554234
0.448385594802126 0.9999967538107 -17.92434354248
0.451496777203617 0.9999966974319 -18.04732100783
0.454629546953247 0.9999966400902 -18.17112304935
0.457784053837669 0.9999965817665 -18.29575480460
0.460960448682851 0.9999965224412 -18.42122143340
0.464158883361285 0.9999964620983 -18.54752811935
0.467379510799254 0.9999964007193 -18.67468007010
0.470622484984136 0.9999963382884 -18.80268251735
0.473887960971773 0.9999962747903 -18.93154071707
0.477176094893882 0.9999962102041 -19.06125994714
0.480487043965521 0.9999961445108 -19.19184551051
0.483820966492603 0.9999960776953 -19.32330273306
0.487178021879471 0.9999960097389 -19.45563696346
0.490558370636513 0.9999959406177 -19.58885357450
0.493962174387840 0.9999958703138 -19.72295796171
0.497389595879015 0.9999957988119 -19.85795554346
0.500840798984829 0.9999957260834 -19.99385176062
0.504315948717144 0.9999956521204 -20.13065207916
0.507815211232776 0.9999955768928 -20.26836198445
0.511338753841441 0.9999955003781 -20.40698698647
0.514886745013758 0.9999954225637 -20.54653261695
0.518459354389300 0.9999953434195 -20.68700443077
0.522056752784706 0.9999952629288 -20.82840800307
0.525679112201851 0.9999951810667 -20.97074893279
0.529326605836065 0.9999950978133 -21.11403283965
0.532999408084418 0.9999950131399 -21.25826536538
0.536697694554057 0.9999949270295 -21.40345217318
0.540421642070601 0.9999948394538 -21.54959894694
0.544171428686599 0.9999947503900 -21.69671139277
0.547947233690038 0.9999946598144 -21.84479523660
0.551749237612922 0.9999945676995 -21.99385622521
0.555577622239898 0.9999944740221 -22.14390012614
0.559432570616948 0.9999943787565 -22.29493272742
0.563314267060146 0.9999942818753 -22.44695983597
0.567222897164465 0.9999941833540 -22.59998728026
0.571158647812654 0.9999940831603 -22.75402090706
0.575121707184172 0.9999939812764 -22.90906658233
0.579112264764187 0.9999938776644 -23.06513019189
0.583130511352633 0.9999937723020 -23.22221763989
0.587176639073336 0.9999936651617 -23.38033484916
0.591250841383199 0.9999935562081 -23.53948776013
0.595353313081448 0.9999934454168 -23.69968233222
0.599484250318952 0.9999933327564 -23.86092454180
0.603643850607598 0.9999932181967 -24.02322038253
0.607832312829735 0.9999931017015 -24.18657586631
0.612049837247682 0.9999929832469 -24.35099701932
0.616296625513306 0.9999928627978 -24.51648988625
0.620572880677662 0.9999927403263 -24.68306052686
0.624878807200702 0.9999926157891 -24.85071501695
0.629214610961047 0.9999924891614 -25.01945944730
0.633580499265838 0.9999923604065 -25.18929992412
0.637976680860641 0.9999922294928 -25.36024256712
0.642403365939432 0.9999920963789 -25.53229351120
0.646860766154646 0.9999919610365 -25.70545890491
0.651349094627294 0.9999918234230 -25.87974490945
0.655868565957157 0.9999916835100 -26.05515769991
0.660419396233044 0.9999915412538 -26.23170346258
0.665001803043126 0.9999913966169 -26.40938839727
0.669616005485336 0.9999912495663 -26.58821871412
0.674262224177848 0.9999911000578 -26.76820063501
0.678940681269625 0.9999909480558 -26.94934039221
0.683651600451038 0.9999907935181 -27.13164422830
0.688395206964564 0.9999906364048 -27.31511839570
0.693171727615555 0.9999904766734 -27.49976915538
0.697981390783081 0.9999903142867 -27.68560277699
0.702824426430850 0.9999901491991 -27.87262553922
0.707701066118204 0.9999899813637 -28.06084372675
0.712611543011190 0.9999898107454 -28.25026363218
0.717556091893708 0.9999896372959 -28.44089155479
0.722534949178737 0.9999894609672 -28.63273379868
0.727548352919639 0.9999892817218 -28.82579667401
0.732596542821539 0.9999890995072 -29.02008649481
0.737679760252789 0.9999889142755 -29.21560957966
0.742798248256508 0.9999887259835 -29.41237225023
0.747952251562199 0.9999885345823 -29.61038083094
0.753142016597454 0.9999883400245 -29.80964164826
0.758367791499736 0.9999881422559 -30.01016102986
0.763629826128241 0.9999879412298 -30.21194530428
0.768928372075848 0.9999877368939 -30.41500079960
0.774263682681144 0.9999875291974 -30.61933384360
0.779636013040541 0.9999873180853 -30.82495076257
0.785045620020468 0.9999871035120 -31.03185788012
0.790492762269660 0.9999868854148 -31.24006151723
0.795977700231516 0.9999866637438 -31.44956799097
0.801500696156559 0.9999864384431 -31.66038361425
0.807062014114969 0.9999862094554 -31.87251469413
0.812661920009213 0.9999859767259 -32.08596753206
0.818300681586758 0.9999857401960 -32.30074842142
0.823978568452871 0.9999854998081 -32.51686364931
0.829695852083510 0.9999852555000 -32.73431949265
0.835452805838306 0.9999850072134 -32.95312222014
0.841249704973631 0.9999847548903 -33.17327808876
0.847086826655760 0.9999844984638 -33.39479334565
0.852964449974122 0.9999842378753 -33.61767422411
0.858882855954645 0.9999839730605 -33.84192694563
0.864842327573192 0.9999837039562 -34.06755771644
0.870843149769093 0.9999834304948 -34.29457272868
0.876885609458764 0.9999831526112 -34.52297815750
0.882969995549430 0.9999828702422 -34.75278016226
0.889096598952937 0.9999825833162 -34.98398488315
0.895265712599661 0.9999822917654 -35.21659844160
0.901477631452513 0.9999819955217 -35.45062693899
0.907732652521044 0.9999816945134 -35.68607645594
0.914031074875645 0.9999813886703 -35.92295305013
0.920373199661844 0.9999810779208 -36.16126275723
0.926759330114710 0.9999807621910 -36.40101158710
0.933189771573346 0.9999804414067 -36.64220552495
0.939664831495492 0.9999801154933 -36.88485052949
0.946184819472223 0.9999797843743 -37.12895253168
0.952750047242752 0.9999794479762 -37.37451743298
0.959360828709338 0.9999791062160 -37.62155110579
0.966017479952288 0.9999787590189 -37.87005939101
0.972720319245078 0.9999784063050 -38.12004809698
0.979469667069564 0.9999780479915 -38.37152299872
0.986265846131307 0.9999776839980 -38.62448983604
0.993109181375004 0.9999773142429 -38.87895431316
1.000000000000020 0.9999769386404 -39.13492209752
1.006938631476050 0.9999765571066 -39.39239881676
1.013925407558840 0.9999761695577 -39.65139006055
1.020960662306070 0.9999757759040 -39.91190137610
1.028044732093340 0.9999753760594 -40.17393826839
1.035177955630200 0.9999749699347 -40.43750619987
1.042360673976430 0.9999745574382 -40.70261058671
1.049593230558250 0.9999741384830 -40.96925680053
1.056875971184830 0.9999737129745 -41.23745016323
1.064209244064750 0.9999732808202 -41.50719595001
1.071593399822700 0.9999728419270 -41.77849938435
1.079028791516210 0.9999723961971 -42.05136563828
1.086515774652570 0.9999719435372 -42.32579983153
1.094054707205770 0.9999714838459 -42.60180702873
1.101645949633690 0.9999710170311 -42.87939223908
1.109289864895250 0.9999705429864 -43.15856041470
1.116986818467850 0.9999700616148 -43.43931644936
1.124737178364780 0.9999695728144 -43.72166517601
1.132541315152840 0.9999690764828 -44.00561136673
1.140399601970060 0.9999685725139 -44.29115973185
1.148312414543540 0.9999680608031 -44.57831491568
1.156280131207410 0.9999675412439 -44.86708149732
1.164303132920910 0.9999670137300 -45.15746399005
1.172381803286630 0.9999664781524 -45.44946683705
1.180516528568840 0.9999659343998 -45.74309441257
1.188707697711940 0.9999653823623 -46.03835101907
1.196955702359080 0.9999648219292 -46.33524088599
1.205260936870870 0.9999642529847 -46.63376816852
1.213623798344270 0.9999636754148 -46.93393694655
1.222044686631520 0.9999630891047 -47.23575122236
1.230524004359300 0.9999624939368 -47.53921491996
1.239062156947950 0.9999618897951 -47.84433188276
1.247659552630900 0.9999612765572 -48.15110587316
1.256316602474150 0.9999606541037 -48.45954057093
1.265033720395940 0.9999600223147 -48.76963957045
1.273811323186510 0.9999593810641 -49.08140638079
1.282649830528100 0.9999587302303 -49.39484442491
1.291549665014920 0.9999580696872 -49.70995703544
1.300511252173440 0.9999573993069 -50.02674745677
1.309535020482700 0.9999567189656 -50.34521884017
1.318621401394790 0.9999560285291 -50.66537424628
1.327770829355470 0.9999553278720 -50.98721663954
1.336983741824980 0.9999546168587 -51.31074889086
1.346260579298950 0.9999538953579 -51.63597377261
1.355601785329410 0.9999531632358 -51.96289396127
1.365007806546050 0.9999524203572 -52.29151203222
1.374479092677580 0.9999516665857 -52.62183046085
1.384016096573170 0.9999509017834 -52.95385162178
1.393619274224180 0.9999501258107 -53.28757778357
1.403289084785910 0.9999493385281 -53.62301111404
1.413025990599570 0.9999485397930 -53.96015367343
1.422830457214390 0.9999477294623 -54.29900741597
1.432702953409870 0.9999469073932 -54.63957418853
1.442643951218200 0.9999460734387 -54.98185572793
1.452653925946820 0.9999452274531 -55.32585366253
1.462733356201170 0.9999443692878 -55.67156950901
1.472882723907540 0.9999434987932 -56.01900467253
1.483102514336150 0.9999426158186 -56.36816044433
1.493393216124300 0.9999417202122 -56.71903800339
1.503755321299780 0.9999408118193 -57.07163841279
1.514189325304400 0.9999398904874 -57.42596261995
1.524695727017620 0.9999389560587 -57.78201145771
1.535275028780470 0.9999380083763 -58.13978563981
1.545927736419520 0.9999370472819 -58.49928576195
1.556654359271110 0.9999360726135 -58.86051230403
1.567455410205640 0.9999350842118 -59.22346562414
1.578331405652160 0.9999340819133 -59.58814596178
1.589282865623020 0.9999330655522 -59.95455343533
1.600310313738750 0.9999320349646 -60.32268804406
1.611414277253070 0.9999309899812 -60.69254966568
1.622595287078140 0.9999299304362 -61.06413805618
1.633853877809910 0.9999288561576 -61.43745284946
1.645190587753710 0.9999277669734 -61.81249355872
1.656605958949960 0.9999266627117 -62.18925957426
1.668100537200110 0.9999255431988 -62.56775016455
1.679674872092700 0.9999244082577 -62.94796447721
1.691329517029700 0.9999232577109 -63.32990153597
1.703065029252900 0.9999220913803 -63.71356024296
1.714881969870590 0.9999209090841 -64.09893937949
1.726780903884410 0.9999197106411 -64.48603760618
1.738762400216300 0.9999184958676 -64.87485346098
1.750827031735780 0.9999172645777 -65.26538536188
1.762975375287260 0.9999160165854 -65.65763160821
1.775208011717690 0.9999147517008 -66.05159037801
1.787525525904290 0.9999134697350 -66.44725973236
1.799928506782530 0.9999121704951 -66.84463761416
1.812417547374290 0.9999108537888 -67.24372184907
1.824993244816210 0.9999095194193 -67.64451014753
1.837656200388230 0.9999081671897 -68.04700010520
1.850407019542360 0.9999067969013 -68.45118920480
1.863246311931620 0.9999054083519 -68.85707481559
1.876174691439180 0.9999040013402 -69.26465419810
1.889192776207730 0.9999025756611 -69.67392450196
1.902301188669000 0.9999011311072 -70.08488277059
1.915500555573590 0.9998996674713 -70.49752594174
1.928791508020840 0.9998981845408 -70.91185084939
1.942174681489090 0.9998966821027 -71.32785422564
1.955650715866010 0.9998951599441 -71.74553270265
1.969220255479230 0.9998936178453 -72.16488281654
1.982883949127130 0.9998920555888 -72.58590100858
1.996642450109860 0.9998904729502 -73.00858362655
2.010496416260560 0.9998888697077 -73.43292692919
2.024446509976870 0.9998872456336 -73.85892708981
2.038493398252530 0.9998856004981 -74.28658019611
2.052637752709320 0.9998839340708 -74.71588225651
2.066880249629150 0.9998822461160 -75.14682920155
2.081221569986410 0.9998805363967 -75.57941688768
2.095662399480500 0.9998788046736 -76.01364110171
2.110203428568660 0.9998770507026 -76.44949756216
2.124845352498950 0.9998752742391 -76.88698192728
2.139588871343490 0.9998734750330 -77.32608979457
2.154434690031950 0.9998716528330 -77.76681670732
2.169383518385260 0.9998698073834 -78.20915816015
2.184436071149500 0.9998679384257 -78.65310960007
2.199593068030150 0.9998660456973 -79.09866643476
2.214855233726430 0.9998641289326 -79.54582403573
2.230223297966010 0.9998621878619 -79.99457774340
2.245697995539850 0.9998602222113 -80.44492287307
2.261280066337350 0.9998582317049 -80.89685471968
2.276970255381760 0.9998562160595 -81.35036856331
2.292769312865730 0.9998541749907 -81.80545967724
2.308677994187250 0.9998521082082 -82.26212333018
2.324697059985730 0.9998500154168 -82.72035479688
2.340827276178370 0.9998478963176 -83.18014936019
2.357069413996810 0.9998457506065 -83.64150232204
2.373424250023950 0.9998435779737 -84.10440900695
2.389892566231130 0.9998413781049 -84.56886477158
2.406475150015510 0.9998391506809 -85.03486500907
2.423172794237680 0.9998368953756 -85.50240516156
2.439986297259630 0.9998346118576 -85.97148072197
2.456916462982870 0.9998322997900 -86.44208724772
2.473964100886900 0.9998299588294 -86.91422036459
2.491130026067870 0.9998275886254 -87.38787577828
2.508415059277630 0.9998251888212 -87.86304928142
2.525820026962870 0.9998227590536 -88.33973676408
2.543345761304740 0.9998202989512 -88.81793422115
2.560993100258550 0.9998178081362 -89.29763776322
2.578762887593890 0.9998152862216 -89.77884362902
2.596655972934960 0.9998127328147 -90.26154818844
2.614673211801180 0.9998101475119 -90.74574796164
2.632815465648110 0.9998075299023 -91.23143962356
2.651083601908630 0.9998048795659 -91.71862001626
2.669478494034410 0.9998021960731 -92.20728616355
2.688001021537700 0.9997994789851 -92.69743527761
2.706652070033340 0.9997967278521 -93.18906477627
2.725432531281130 0.9997939422151 -93.68217229062
2.744343303228460 0.9997911216035 -94.17675568039
2.763385290053270 0.9997882655359 -94.67281304668
2.782559402207220 0.9997853735188 -95.17034274390
2.801866556459290 0.9997824450465 -95.66934339697
2.821307675939570 0.9997794796024 -96.16981391148
2.840883690183400 0.9997764766546 -96.67175349029
2.860595535175840 0.9997734356586 -97.17516164773
2.880444153396400 0.9997703560569 -97.68003822659
2.900430493864100 0.9997672372755 -98.18638341186
2.920555512182850 0.9997640787270 -98.69419774818
2.940820170587170 0.9997608798070 -99.20348215503
2.961225437988140 0.9997576398960 -99.71423794879
2.981772290019781 0.9997543583570 -100.2264668516
3.002461709085660 0.9997510345351 -100.7401710178
3.023294684405890 0.9997476677577 -101.2553530490
3.044272212064410 0.9997442573333 -101.7720160133
3.065395295056641 0.9997408025497 -102.2901634657
3.086664943337390 0.9997373026758 -102.8097994681
3.108082173869180 0.9997337569583 -103.3309286101
3.129648010670870 0.9997301646218 -103.8535560315
3.151363484866590 0.9997265248688 -104.3776874432
3.173229634735090 0.9997228368776 -104.9033291513
3.195247505759330 0.9997190998014 -105.4304880791
3.217418150676490 0.9997153127682 -105.9591717937
3.239742629528320 0.9997114748795 -106.4893885293
3.262222009711790 0.9997075852082 -107.0211472119
3.284857366030170 0.9997036427997 -107.5544574891
3.307649780744360 0.9996996466688 -108.0893297555
3.330600343624710 0.9996955957985 -108.6257751816
3.353710152003060 0.9996914891408 -109.1638057427
3.376980310825220 0.9996873256138 -109.7034342477
3.400411932703830 0.9996831040996 -110.2446743742
3.424006137971550 0.9996788234453 -110.7875406974
3.447764054734590 0.9996744824595 -111.3320487241
3.471686818926691 0.9996700799117 -111.8782149283
3.495775574363410 0.9996656145305 -112.4260567850
3.520031472796811 0.9996610850020 -112.9755928101
3.544455673970570 0.9996564899679 -113.5268425929
3.569049345675360 0.9996518280244 -114.0798268438
3.593813663804760 0.9996470977191 -114.6345674281
3.618749812411420 0.9996422975504 -115.1910874123
3.643858983763680 0.9996374259638 -115.7494111048
3.669142378402630 0.9996324813521 -116.3095641072
3.694601205199440 0.9996274620506 -116.8715733568
3.720236681413210 0.9996223663366 -117.4354671759
3.746050032749140 0.9996171924259 -118.0012753265
3.772042493417140 0.9996119384712 -118.5690290600
3.798215306190880 0.9996066025581 -119.1387611727
3.824569722467150 0.9996011827040 -119.7105060654
3.851107002325720 0.9995956768532 -120.2842998004
3.877828414589610 0.9995900828751 -120.8601801649
3.904735236885710 0.9995843985611 -121.4381867372
3.931828755705920 0.9995786216200 -122.0183609497
3.959110266468610 0.9995727496759 -122.6007461640
3.986581073580600 0.9995667802635 -123.1853877409
4.014242490499480 0.9995607108242 -123.7723331171
4.042095839796470 0.9995545387022 -124.3616318860
4.070142453219600 0.9995482611407 -124.9533358796
4.098383671757420 0.9995418752764 -125.5474992568
4.126820845703120 0.9995353781351 -126.1441785916
4.155455334719040 0.9995287666269 -126.7434329720
4.184288507901750 0.9995220375405 -127.3453240929
4.213321743847450 0.9995151875382 -127.9499163657
4.242556430717950 0.9995082131495 -128.5572770257
4.271993966306950 0.9995011107649 -129.1674762430
4.301635758106970 0.9994938766302 -129.7805872430
4.331483223376570 0.9994865068385 -130.3966864320
4.361537789208181 0.9994789973240 -131.0158535228
4.391800892596260 0.9994713438538 -131.6381716933
4.422273980506080 0.9994635420199 -132.2637276984
4.452958509942830 0.9994555872311 -132.8926120397
4.483855948021370 0.9994474747037 -133.5249191244
4.514967772036280 0.9994391994523 -134.1607474290
4.546295469532581 0.9994307562795 -134.8001996757
4.577840538376800 0.9994221397656 -135.4433830174
4.609604486828620 0.9994133442576 -136.0904092322
4.641588833612970 0.9994043638571 -136.7413949268
4.673795107992651 0.9993951924079 -137.3964617533
4.706224849841470 0.9993858234829 -138.0557366382
4.738879609717850 0.9993762503702 -138.7193520166
4.771760948938940 0.9993664660579 -139.3874460892
4.804870439655330 0.9993564632192 -140.0601630937
4.838209664926160 0.9993462341948 -140.7376535744
4.871780218794830 0.9993357709758 -141.4200746863
4.905583706365250 0.9993250651852 -142.1075905113
4.939621743878520 0.9993141080578 -142.8003723863
4.973895958790270 0.9993028904191 -143.4985992562
5.008407989848420 0.9992914026630 -144.2024580463
5.043159487171570 0.9992796347283 -144.9121440550
5.078152112327890 0.9992675760728 -145.6278613728
5.113387538414541 0.9992552156477 -146.3498233199
5.148867450137710 0.9992425418676 -147.0782529163
5.184593543893131 0.9992295425819 -147.8133833862
5.220567527847201 0.9992162050408 -148.5554586690
5.256791122018640 0.9992025158623 -149.3047339953
5.293266058360780 0.9991884609953 -150.0614764712
5.329994080844321 0.9991740256806 -150.8259657152
5.366976945540700 0.9991591944097 -151.5984945255
5.404216420706151 0.9991439508806 -152.3793696017
5.441714286866120 0.9991282779512 -153.1689122943
5.479472336900520 0.9991121575891 -153.9674594238
5.517492376129360 0.9990955708181 -154.7753641380
5.555776222399111 0.9990784976622 -155.5929968284
5.594325706169620 0.9990609170845 -156.4207461174
5.633142670601600 0.9990428069228 -157.2590198918
5.672228971644790 0.9990241438217 -158.1082464258
5.711586478126681 0.9990049031588 -158.9688755636
5.751217071841860 0.9989850589672 -159.8413799937
5.791122647642010 0.9989645838528 -160.7262566033
5.831305113526480 0.9989434489059 -161.6240279273
5.871766390733510 0.9989216236075 -162.5352436973
5.912508413832140 0.9988990757299 -163.4604825025
5.953533130814630 0.9988757712304 -164.4003535536
5.994842503189670 0.9988516741394 -165.3554985863
6.036438506076130 0.9988267464408 -166.3265938907
6.078323128297500 0.9988009479461 -167.3143524759