! Sonnet Data File
! From: em Version : 18.56
! From Project: N1000_0o1-100_nd_nadap
! Data is De-embedded 
! Data File Written: 03/04/2023 11:06:04
!< HDATE 03/04/2023 10:23:07
!< MDATE 03/04/2023 10:23:07
# GHZ S MA R 50.00000
0.100000000000000 0.9999999258204 -4.018824637090
0.200000000000000 0.9999995719161 -8.030899650709
0.300000000000000 0.9999988121023 -12.02954878790
0.400000000000000 0.9999975582673 -16.00825705523
0.500000000000000 0.9999957438700 -19.96074759124
0.600000000000000 0.9999933186106 -23.88105119511
0.700000000000000 0.9999902456667 -27.76356736195
0.800000000000000 0.9999864998687 -31.60311565654
0.900000000000000 0.9999820662310 -35.39497665168
1.000000000000000 0.9999769386419 -39.13492209745
1.100000000000000 0.9999711185816 -42.81923439771
1.200000000000000 0.9999646139187 -46.44471586616
1.300000000000000 0.9999574376942 -50.00868854104
1.400000000000000 0.9999496069803 -53.50898557699
1.500000000000000 0.9999411417893 -56.94393539866
1.600000000000000 0.9999320640637 -60.31233988428
1.700000000000000 0.9999223967506 -63.61344786015
1.800000000000000 0.9999121629824 -66.84692516282
1.900000000000000 0.9999013853497 -70.01282241806
2.000000000000000 0.9998900852848 -73.11154159978
2.100000000000000 0.9998782825349 -76.14380227227
2.200000000000000 0.9998659947323 -79.11060829526
2.300000000000000 0.9998532370478 -82.01321561093
2.400000000000000 0.9998400219089 -84.85310161797
2.500000000000000 0.9998263587909 -87.63193648399
2.600000000000000 0.9998122540535 -90.35155666322
2.700000000000000 0.9997977108190 -93.01394077286
2.800000000000000 0.9997827288813 -95.62118791007
2.900000000000000 0.9997673046408 -98.17549842389
3.000000000000000 0.9997514310464 -100.6791571098
3.100000000000000 0.9997350975492 -103.1345187494
3.200000000000000 0.9997182900512 -105.5439959083
3.300000000000000 0.9997009908501 -107.9100488639
3.400000000000000 0.9996831785689 -110.2351775564
3.500000000000000 0.9996648280698 -112.5219154217
3.600000000000000 0.9996459103471 -114.7728249996
3.700000000000000 0.9996263923912 -116.9904951907
3.800000000000000 0.9996062370265 -119.1775400663
3.900000000000000 0.9995854027128 -121.3365991369
4.000000000000000 0.9995638433103 -123.4703389946
4.100000000000001 0.9995415078021 -125.5814562779
4.200000000000000 0.9995183399715 -127.6726819073
4.300000000000001 0.9994942780280 -129.7467865579
4.400000000000000 0.9994692541776 -131.8065873650
4.500000000000000 0.9994431941326 -133.8549558928
4.600000000000001 0.9994160165525 -135.8948273028
4.700000000000000 0.9993876324109 -137.9292109022
4.800000000000001 0.9993579442824 -139.9612020247
4.900000000000000 0.9993268455364 -141.9939953982
5.000000000000000 0.9992942194338 -144.0309000574
5.100000000000001 0.9992599381139 -146.0753559778
5.200000000000000 0.9992238614619 -148.1309525750
5.300000000000001 0.9991858358458 -150.2014492411
5.400000000000000 0.9991456927127 -152.2907981303
5.500000000000000 0.9991032470314 -154.4031694545
5.600000000000001 0.9990582955745 -156.5429795366
5.700000000000000 0.9990106150301 -158.7149219195
5.800000000000001 0.9989599599398 -160.9240018630
5.900000000000000 0.9989060604659 -163.1755745723
6.000000000000000 0.9988486199970 -165.4753875149
6.100000000000001 0.9987873126187 -167.8296272102
6.200000000000000 0.9987217804923 -170.2449708253
6.300000000000001 0.9986516312155 -172.7286429155
6.400000000000000 0.9985764352768 -175.2884775234
6.500000000000000 0.9984957237734 -177.9329857461
6.600000000000001 0.9984089866411 179.32857137466
6.700000000000000 0.9983156717510 176.48610511358
6.800000000000001 0.9982151853550 173.52861746965
6.900000000000000 0.9981068946046 170.44411746707
7.000000000000000 0.9979901330492 167.21953814851
7.100000000000001 0.9978642104107 163.84065854807
7.200000000000000 0.9977284283093 160.29203697485
7.300000000000001 0.9975821041257 156.55696462663
7.400000000000000 0.9974246057596 152.61745219805
7.500000000000001 0.9972554006459 148.45426667851
7.600000000000001 0.9970741229259 144.04704115281
7.700000000000000 0.9968806629364 139.37448702351
7.800000000000001 0.9966752828583 134.41474502093
7.900000000000000 0.9964587609475 129.14591778973
8.000000000000000 0.9962325635465 123.54683064627
8.100000000000000 0.9959990382196 117.59806523748
8.200000000000001 0.9957616120786 111.28329828672
8.300000000000001 0.9955249665342 104.59094901596
8.400000000000000 0.9952951445189 97.516087795898
8.500000000000000 0.9950795324513 90.062482178343
8.600000000000001 0.9948866537511 82.244557918203
8.700000000000001 0.9947257230964 74.088947906200
8.800000000000001 0.9946059493877 65.635220312714
8.900000000000000 0.9945356417926 56.935358827112
9.000000000000000 0.9945212540899 48.051644683819
9.100000000000001 0.9945665690777 39.052761110866
9.200000000000001 0.9946722430511 30.008139746162
9.300000000000001 0.9948358831818 20.980647941369
9.400000000000000 0.9950527390293 12.017422023346
9.500000000000000 0.9953170214320 3.1375175046628
9.600000000000001 0.9956239397392 -5.688114535237
9.700000000000001 0.9959730333794 -14.57803364776
9.800000000000001 0.9963751865779 -23.84896938355
9.900000000000000 0.9968735733467 -34.38404591166
10.00000000000000 0.9976374075169 -49.46316563925
10.10000000000000 0.9995661205287 -96.03123388457
10.20000000000000 0.9939545061498 14.533588723215
10.30000000000000 0.9959149901939 -24.78812084161
10.40000000000000 0.9966122197909 -37.75601417491
10.50000000000000 0.9970308773498 -45.96200933580
10.60000000000000 0.9973408021585 -52.34202822532
10.70000000000000 0.9975922132706 -57.74416284356
10.80000000000000 0.9978055700774 -62.51298127371
10.90000000000000 0.9979911499906 -66.82133823501
11.00000000000000 0.9981549761569 -70.76999743882
11.10000000000000 0.9983010210893 -74.42480674560
11.20000000000000 0.9984321522315 -77.83283245252
11.30000000000000 0.9985505856090 -81.03023604888
11.40000000000000 0.9986581260994 -84.04654790349
11.50000000000000 0.9987563084994 -86.90726844764
11.60000000000000 0.9988464915389 -89.63570865703
11.70000000000000 0.9989299321685 -92.25459130977
11.80000000000000 0.9990078584821 -94.78783299699
11.90000000000000 0.9990815598773 -97.26303950395
12.00000000000000 0.9991525231591 -99.71567836707
12.10000000000000 0.9992226723535 -102.1970732194
12.20000000000000 0.9992948480818 -104.7917497556
12.30000000000000 0.9993738883388 -107.6607852977
12.40000000000000 0.9994693981805 -111.1727700272
12.50000000000000 0.9996035780751 -116.4347796660
12.60000000000000 0.9998091986285 -129.0976867504
12.70000000000000 0.9893094473526 36.297682073327
12.80000000000000 0.9983060063790 -91.01405661216
12.90000000000000 0.9988969901893 -101.8170005495
13.00000000000000 0.9990916913320 -106.4799457453
13.10000000000000 0.9991945913873 -109.4881793083
13.20000000000000 0.9992615995929 -111.7982113683
13.30000000000000 0.9993104572221 -113.7383831685
13.40000000000000 0.9993485621911 -115.4527639908
13.50000000000000 0.9993795683885 -117.0152379682
13.60000000000000 0.9994055052094 -118.4681441932
13.70000000000000 0.9994276024896 -119.8379053169
13.80000000000000 0.9994466579111 -121.1421972269
13.90000000000000 0.9994632180328 -122.3935679983
14.00000000000000 0.9994776748988 -123.6014107884
14.10000000000000 0.9994903211442 -124.7731136235
14.20000000000000 0.9995013833724 -125.9147741825
14.30000000000000 0.9995110436453 -127.0316776400
14.40000000000000 0.9995194543683 -128.1286478388
14.50000000000000 0.9995267496945 -129.2103415287
14.60000000000000 0.9995330555930 -130.2815403330
14.70000000000000 0.9995385004948 -131.3474987611
14.80000000000000 0.9995432288488 -132.4144326221
14.90000000000000 0.9995474213229 -133.4902986805
15.00000000000000 0.9995513287610 -134.5861746591
15.10000000000000 0.9995553351102 -135.7189456471
15.20000000000000 0.9995600853700 -136.9171045912
15.30000000000000 0.9995667737566 -138.2349992420
15.40000000000000 0.9995778759470 -139.7946286699
15.50000000000000 0.9995992444792 -141.9469576803
15.60000000000000 0.9996432847051 -146.3144971286
15.70000000000000 0.9939366655949 147.74651642362
15.80000000000000 0.9990688168437 -132.3536959150
15.90000000000000 0.9992985198996 -137.8600898246
16.00000000000000 0.9993471055460 -140.2535676726
16.10000000000000 0.9993596970027 -141.9353762853
16.20000000000000 0.9993580849250 -143.3532501963
16.30000000000000 0.9993485011419 -144.6545670880
16.40000000000000 0.9993332380824 -145.9041983039
16.50000000000000 0.9993131831316 -147.1372462219
16.60000000000000 0.9992885849834 -148.3765024729
16.70000000000000 0.9992593277960 -149.6397342587
16.80000000000000 0.9992250283527 -150.9437177710
16.90000000000000 0.9991850454826 -152.3079076508
17.00000000000000 0.9991384048614 -153.7609045108
17.10000000000000 0.9990835127412 -155.3601397356
17.20000000000000 0.9990166885121 -157.2926592381
17.30000000000000 0.9989050639744 -161.5013825525
17.40000000000000 0.9988980698313 -157.2407946243
17.50000000000000 0.9987845617809 -160.5725991873
17.60000000000000 0.9986613199702 -162.9634631449
17.70000000000000 0.9985140123326 -165.3953972062
17.80000000000000 0.9983319936730 -168.0620975118
17.90000000000000 0.9980992985975 -171.1122472597
18.00000000000000 0.9977859359310 -174.7715098927
18.10000000000000 0.9973184444159 -179.5591666080
18.20000000000000 0.9963947852919 172.45546920638
18.30000000000000 0.9852617363429 101.96121906740
18.40000000000000 0.9969393554289 -179.7358546355
18.50000000000000 0.9973742547187 172.78851558805
18.60000000000000 0.9958118313508 161.72040331033
18.70000000000000 0.9942947804224 150.36748089359
18.80000000000000 0.9923573877313 136.35411430774
18.90000000000000 0.9898207453568 118.07848392204
19.00000000000000 0.9868154929737 93.943460337566
19.10000000000000 0.9842785103417 63.268186137365
19.20000000000000 0.9839072775713 28.284433763603
19.30000000000000 0.9862085955318 -5.658195926818
19.40000000000000 0.9896035102407 -34.06253803814
19.50000000000000 0.9925955009917 -56.01059406304
19.60000000000000 0.9947423877985 -73.22422098689
19.70000000000000 0.9963925483777 -82.90175743256
19.80000000000000 0.9973967886431 -93.71048904593
19.90000000000000 0.9981199342492 -101.8761845198
20.00000000000000 0.9986458316200 -108.7464325719
20.10000000000000 0.9990424296107 -114.9038285763
20.20000000000000 0.9993562029826 -120.8857846134
20.30000000000000 0.9996187143394 -127.4740043018
20.40000000000000 0.9998364935027 -136.5409776328
20.50000000000000 0.9997196930218 -156.4642932117
20.60000000000000 0.9862605707135 45.958414394954
20.70000000000000 0.9976360775434 -96.59568426474
20.80000000000000 0.9991178209228 -117.7778321355
20.90000000000000 0.9991691533658 -119.7497700605
21.00000000000000 0.9977252628827 -96.36907580893
21.10000000000000 0.9991445748363 -116.7253639213
21.20000000000000 0.9994157737809 -122.5574174864
21.30000000000000 0.9995536245579 -126.2040549921
21.40000000000000 0.9996439913630 -129.0408506243
21.50000000000000 0.9997104925268 -131.5009471962
21.60000000000000 0.9997585165424 -133.8317278226
21.70000000000000 0.9998059822246 -136.1190095864
21.80000000000000 0.9998415170584 -138.6819325751
21.90000000000000 0.9976705330568 -150.0244809972
22.00000000000000 0.9998743845923 -146.5764201950
22.10000000000000 0.9998298950064 -149.0059757055
22.20000000000000 0.9977097907676 174.58579790360
22.30000000000000 0.9971002778684 -111.3705603626
22.40000000000000 0.9992513391314 -123.5403127840
22.50000000000000 0.9995335773672 -128.7426023738
22.60000000000000 0.9996961852506 -134.3904704340
22.70000000000000 0.9997153232661 -135.1766220036
22.80000000000000 0.9997977638014 -138.3800848632
22.90000000000000 0.9998278769646 -140.5013431382
23.00000000000000 0.9998350614570 -142.2243244860
23.10000000000000 0.9998611395231 -144.4902825857
23.20000000000000 0.9998596206249 -146.6346466148
23.30000000000000 0.9998161156339 -148.6242751658
23.40000000000000 0.9997857946391 -155.3784279515
23.50000000000000 0.9989298164246 -176.2371723351
23.60000000000000 0.9965983550586 -92.57692610518
23.70000000000000 0.9995150579158 -130.7182299000
23.80000000000000 0.9997355838020 -139.0443626377
23.90000000000000 0.9997949969385 -141.4131444520
24.00000000000000 0.9998135108868 -143.0822919648
24.10000000000000 0.9998418450903 -146.9652658395
24.20000000000000 0.9997129288779 -146.0717088709
24.30000000000000 0.9982443278140 -177.6271291513
24.40000000000000 0.9998039846936 -146.5494940544
24.50000000000000 0.9998035625329 -152.1559077140
24.60000000000000 0.9997096760387 -157.5188494613
24.70000000000000 0.9976612470744 170.64332324824
24.80000000000000 0.9947819432060 -82.43153975082
24.90000000000000 0.9994947116729 -132.3389789157
25.00000000000000 0.9997607000740 -141.2708568084
25.10000000000000 0.9998065252704 -145.2173063132
25.20000000000000 0.9998006355257 -148.4714408272
25.30000000000000 0.9996801724172 -155.0567769188
25.40000000000000 0.9588886631174 -95.78159595831
25.50000000000000 0.9998039698209 -149.3568917664
25.60000000000000 0.9998476754372 -150.7442077530
25.70000000000000 0.9998033592848 -156.2185545685
25.80000000000000 0.9992380597958 -164.3885400151
25.90000000000000 0.9988464842710 -138.3975102357
26.00000000000000 0.9992752661242 -130.0359653994
26.10000000000000 0.9997592331663 -146.9510570032
26.20000000000000 0.9996219413310 -144.3651176045
26.30000000000000 0.9997750911452 -152.1986880710
26.40000000000000 0.9929824010225 165.80728207816
26.50000000000000 0.9971753546076 -177.5465731336
26.60000000000000 0.9997897008323 -151.7320598180
26.70000000000000 0.9997802575585 -152.8218663886
26.80000000000000 0.9994326676431 -152.7962621641
26.90000000000000 0.9993946423464 -163.8055746794
27.00000000000000 0.9966264491082 157.96264521659
27.10000000000000 0.9995441147984 -144.4049969092
27.20000000000000 0.9996017112957 -156.7545807956
27.30000000000000 0.9991943411803 -129.9814135156
27.40000000000000 0.9995997710131 -159.3438842932
27.50000000000000 0.9993784476407 -167.3895260208
27.60000000000000 0.9848372734189 85.894633242749
27.70000000000000 0.9964188664093 -116.3439775271
27.80000000000000 0.9996598703829 -149.9562460768
27.90000000000000 0.9992597955206 -151.8410752997
28.00000000000000 0.9996431697685 -158.8828663556
28.10000000000000 0.9992436385778 -168.5984856052
28.20000000000000 0.9893744382818 114.35094168833
28.30000000000000 0.9992305085014 -140.6235809144
28.40000000000000 0.9996763304547 -153.8471902400
28.50000000000000 0.9991136905397 -169.3943932451
28.60000000000000 0.9984538432078 -177.9049399566
28.70000000000000 0.9979771165265 -118.8087100232
28.80000000000000 0.9973841623002 -170.7738569489
28.90000000000000 0.9991330920474 -136.5035464511
29.00000000000000 0.9995442433456 -140.7305822430
29.10000000000000 0.9996477924858 -153.9142752474
29.20000000000000 0.9990415543847 -163.2905297350
29.30000000000000 0.9955186186398 157.86925275632
29.40000000000000 0.9981153198183 -149.0580679151
29.50000000000000 0.9988038844835 -145.4970826494
29.60000000000000 0.9996980693179 -144.5498978421
29.70000000000000 0.9966715636279 166.59274886053
29.80000000000000 0.9769132702355 112.80308631709
29.90000000000000 0.9983467164441 -122.8938633862
30.00000000000000 0.9996355658790 -137.5467258679
30.10000000000000 0.9998621025648 -144.2112010041
30.20000000000000 0.9998824990240 -149.5363767725
30.30000000000000 0.9986923453740 -158.7803980753
30.40000000000000 0.9972097936000 176.12322761159
30.50000000000000 0.9997021058579 -141.8580935938
30.60000000000000 0.9996529410085 -142.3018426675
30.70000000000000 0.9998980048344 -149.3715971963
30.80000000000000 0.9997736191450 -156.7196573743
30.90000000000000 0.9992150885010 -151.9327267636
31.00000000000000 0.9980942478106 -154.1002940679
31.10000000000000 0.9996905673275 -143.8645822725
31.20000000000000 0.9977764056485 -165.3263959600
31.30000000000000 0.9703561127965 -116.1721578134
31.40000000000000 0.9998976827824 -151.4139851147
31.50000000000000 0.9995920620213 -157.6022170956
31.60000000000000 0.9956449298236 166.71103730297
31.70000000000000 0.9998288547810 -154.4404652278
31.80000000000000 0.9988184398478 -176.4397104987
31.90000000000000 0.9997643628103 -154.0149449375
32.00000000000000 0.9969155538631 -148.7161930012
32.10000000000000 0.9982876261934 -146.6350516222
32.20000000000000 0.9994006992704 -148.7268598131
32.30000000000000 0.9501167610128 -58.44048091324
32.40000000000000 0.9997646096787 -153.8155796768
32.50000000000000 0.9991854217593 -137.3860180771
32.60000000000000 0.9997660048776 -152.8549822294
32.70000000000000 0.9996304130157 -159.9679370493
32.80000000000000 0.9726261099904 -104.1009592686
32.90000000000000 0.9996762248568 -160.4191874431
33.00000000000000 0.9940500782195 -176.9311301279
33.10000000000000 0.9993985213327 -147.0791928084
33.20000000000000 0.9894292351766 155.92379214575
33.30000000000000 0.9992623055602 -156.4454206270
33.40000000000000 0.9671652584227 83.471714010201
33.50000000000000 0.9997540898337 -146.7042986447
33.60000000000000 0.9995537720284 -154.1504613514
33.70000000000000 0.9985238233431 -161.9224157868
33.80000000000000 0.9998348166399 -155.5234091951
33.90000000000000 0.9691801600758 -178.2645307310
34.00000000000000 0.9984639786465 -155.4719876077
34.10000000000000 0.9995102622037 -149.5310887810
34.20000000000000 0.9974767845224 -139.3982393874
34.30000000000000 0.9996588902469 -152.1187994787
34.40000000000001 0.9995837190856 -157.8479719700
34.50000000000000 0.9972355945503 176.51544925294
34.60000000000000 0.9992224179734 -144.7292759236
34.70000000000000 0.9986993633899 -165.1511152890
34.80000000000000 0.9994188208872 -143.1841113043
34.90000000000001 0.9998449592514 -154.1696875602
35.00000000000000 0.9994057987450 -155.1074066148
35.10000000000000 0.9998856333013 -153.6269997351
35.20000000000000 0.9998201885475 -159.8633263951
35.30000000000000 0.9989321738937 -170.5464870087
35.40000000000001 0.9987022564410 -148.5052269218
35.50000000000000 0.9861161520873 -122.4784903844
35.60000000000000 0.9997089559384 -157.0205371754
35.70000000000000 0.9987376061127 -172.1366673096
35.80000000000000 0.9932616424345 155.92661947020
35.90000000000001 0.9996783005789 -150.8789377797
36.00000000000000 0.9867192072313 -169.4551673076
36.10000000000000 0.9997159059872 -158.8652684671
36.20000000000000 0.9997373988306 -150.1900809563
36.30000000000000 0.9993643058893 -149.1648270353
36.40000000000001 0.9992945122552 -165.7205299424
36.50000000000000 0.9997182611564 -162.3237545471
36.60000000000000 0.9968727874601 172.03044150569
36.70000000000000 0.9995081212876 -160.1340730900
36.80000000000000 0.9997767711173 -153.9689534596
36.90000000000001 0.9996319030152 -160.8719400622
37.00000000000000 0.9871660611167 134.26519459894
37.10000000000000 0.9926381006038 -131.6544709857
37.20000000000000 0.9987910425455 -147.5957295189
37.30000000000000 0.9996911920812 -159.5780713579
37.40000000000001 0.9891998901417 -91.70084561935
37.50000000000000 0.9984418252431 -147.5077045905
37.60000000000000 0.9932742176231 -129.0759674330
37.70000000000000 0.9995447918119 -158.0423164169
37.80000000000000 0.9986717911716 -164.0130981840
37.90000000000001 0.9930634385361 162.34915265788
38.00000000000000 0.9970479854811 -136.6320416657
38.10000000000000 0.9990136715624 -155.5722950253
38.20000000000000 0.9985354030195 -171.9324935686
38.30000000000000 0.9995807362972 -162.9337196787
38.40000000000001 0.9986844318702 -166.1436586059
38.50000000000000 0.9990190649510 -159.6965775687
38.60000000000000 0.9975691124754 -175.1057002423
38.70000000000000 0.9966872034638 -150.7413575725
38.80000000000000 0.9545420945145 50.097589325548
38.90000000000001 0.9989443153190 -169.3526249126
39.00000000000000 0.9952968717342 -149.2419048728
39.10000000000000 0.9996987507568 -160.8788276411
39.20000000000000 0.9843350034794 -94.56815666284
39.30000000000000 0.9946597405985 -133.7855372368
39.40000000000001 0.9941321115195 -179.5341087879
39.50000000000000 0.9994581267814 -168.5958359916
39.60000000000000 0.9995720886025 -146.6663758327
39.70000000000000 0.9997840079510 -157.4768009647
39.80000000000000 0.9897396111797 -142.5416545945
39.90000000000001 0.9885474383938 170.31019004351
40.00000000000000 0.9984051366209 -173.1553730608
40.10000000000000 0.9926829304067 -102.1669320621
40.20000000000000 0.9998562749980 -151.0780346892
40.30000000000000 0.9999317481979 -158.1663116916
40.40000000000001 0.9942913519195 176.54803045264
40.50000000000000 0.9990458899023 -174.0328972874
40.60000000000000 0.9993917141408 -145.2903746247
40.70000000000000 0.9998708058251 -160.5793296961
40.80000000000000 0.9998181377009 -152.8937949216
40.90000000000001 0.9998831435474 -160.6749561871
41.00000000000000 0.9998470233936 -162.6058281543
41.10000000000000 0.9989468357013 -165.3145636857
41.20000000000000 0.9890012903501 153.91428523492
41.30000000000000 0.9960155182371 172.77590394129
41.40000000000001 0.9978989657058 -155.9803925273
41.50000000000000 0.9998798516068 -157.7783164048
41.60000000000000 0.9857022232199 158.48832400529
41.70000000000000 0.9434700904528 -114.8924582784
41.80000000000000 0.9961213722306 -156.7732191261
41.90000000000001 0.9947081431767 -130.1139453979
42.00000000000000 0.9994491303028 -162.8760365725
42.10000000000000 0.9997739829372 -159.2690375112
42.20000000000000 0.9992379647296 -163.0556670146
42.30000000000000 0.9822057636581 179.68356563550
42.40000000000001 0.9994250818779 -165.2334126203
42.50000000000000 0.9674656620800 -99.72705613440
42.60000000000000 0.9989989672731 -171.7557348529
42.70000000000000 0.9959492595690 -132.0147279613
42.80000000000000 0.9958159124631 -171.3284859524
42.90000000000001 0.9976062232802 -147.0112596652
43.00000000000000 0.9993840929176 -159.1613186727
43.10000000000000 0.9646511325627 125.81990215695
43.20000000000000 0.9578620732783 166.12556780182
43.30000000000000 0.9992478307138 -168.8235613648
43.40000000000001 0.9944041326171 -134.9395724278
43.50000000000000 0.9993857912413 -153.0953474194
43.60000000000000 0.9997419551477 -160.6382958555
43.70000000000000 0.9996349429087 -165.1825249337
43.80000000000000 0.9986205411712 -173.2288536732
43.90000000000001 0.9995666535989 -166.0130806946
44.00000000000000 0.9898856678274 146.49360016935
44.10000000000000 0.9992002773915 -161.8091127482
44.20000000000000 0.9934141716905 -114.2798519086
44.30000000000000 0.9997383158132 -152.3899479677
44.40000000000001 0.9987943130771 -148.6033762445
44.50000000000000 0.9996315073463 -165.7647388190
44.60000000000000 0.9991939965847 -160.6781110880
44.70000000000000 0.9994017570246 -153.4818387912
44.80000000000000 0.9997151135825 -164.7008502414
44.90000000000001 0.9119804285012 -81.17204930737
45.00000000000000 0.9947655477673 -153.1051718547
45.10000000000000 0.9978102780593 -171.4074759421
45.20000000000000 0.9980868309742 -150.7181882763
45.30000000000000 0.9931255625184 170.55838001181
45.40000000000001 0.9949427367059 -155.5780040926
45.50000000000000 0.9993130245389 -159.6914635480
45.60000000000000 0.9978810605190 -159.6784534446
45.70000000000000 0.9895866022259 -156.8606993437
45.80000000000000 0.9963466786450 -159.1987161761
45.90000000000001 0.9307470336575 2.8830827689131
46.00000000000000 0.9985720048799 -145.0484239761
46.10000000000000 0.9993027103791 -156.7987369479
46.20000000000000 0.9998126172335 -161.3151464643
46.30000000000000 0.9996849233243 -166.1268862291
46.40000000000001 0.9944008237049 -139.3282826539
46.50000000000000 0.9967469105882 -158.6009397182
46.60000000000000 0.9982549678631 -157.0782586064
46.70000000000000 0.9839996198968 -127.1193071242
46.80000000000000 0.9979015469318 -171.4408250917
46.90000000000001 0.9820975951028 134.05986335095
47.00000000000000 0.9900071022793 151.72466700396
47.10000000000000 0.9996864283314 -155.1189904890
47.20000000000000 0.9997033233268 -161.1156693209
47.30000000000000 0.9998703758324 -161.4229692737
47.40000000000001 0.9998945897211 -161.5285097361
47.50000000000000 0.9971455359691 -149.9478873665
47.60000000000000 0.9995238303819 -164.8743530189
47.70000000000000 0.9940209924847 179.66135252472
47.80000000000000 0.9995864802403 -165.9618767520
47.90000000000001 0.9924969798484 167.45411901628
48.00000000000000 0.9979846629032 178.58982208394
48.10000000000000 0.9994184452049 -162.1293509387
48.20000000000000 0.9997145851972 -161.9529430389
48.30000000000000 0.9898440386365 -177.3998177967
48.40000000000001 0.9981230602488 -169.8928729038
48.50000000000000 0.9994132006713 -159.4901555412
48.60000000000000 0.9994360671533 -161.7457964017
48.70000000000000 0.9996867852802 -165.3117626066
48.80000000000000 0.9995122053522 -169.0527320641
48.90000000000001 0.9982190792331 -173.1256042351
49.00000000000000 0.9949487320951 179.31458904941
49.10000000000000 0.7802737469911 115.86899422186
49.20000000000000 0.9991733187904 -169.2300900661
49.30000000000000 0.9985765686790 -178.8555170390
49.40000000000001 0.9750071447931 -115.3969030301
49.50000000000000 0.9960639637765 -143.8197920568
49.60000000000000 0.9988597373083 -157.1677972148
49.70000000000000 0.9947693310224 165.08505492756
49.80000000000000 0.9988248002761 -161.3628436199
49.90000000000001 0.9983139732693 179.76492634540
50.00000000000000 0.9675120376700 -67.31339909267
50.10000000000000 0.9926523197375 -141.9575850492
50.20000000000000 0.9994976897631 -151.8500356635
50.30000000000000 0.9997630386749 -160.3961114287
50.40000000000001 0.9997928464607 -162.7999242068
50.50000000000000 0.9996931941634 -168.3533251188
50.60000000000000 0.9984886234547 -175.9095010635
50.70000000000000 0.9676690540776 116.17997830817
50.80000000000000 0.9991522964673 -159.1698838141
50.90000000000001 0.9987187754178 -165.3419841480
51.00000000000000 0.9993362535217 -168.6679432192
51.10000000000000 0.9914368780369 -126.7978624261
51.20000000000000 0.9995478216457 -162.8965357998
51.30000000000000 0.9970965089692 -177.2199072256
51.40000000000001 0.9950868449631 -140.6065578038
51.50000000000000 0.9988040000498 -159.1454411537
51.60000000000000 0.9977026130496 -164.9388633124
51.70000000000000 0.9997581185462 -164.2860683637
51.80000000000000 0.9373022551624 154.12565994217
51.90000000000001 0.9606019747602 -88.76985961357
52.00000000000000 0.9953522434440 -169.3918023757
52.10000000000000 0.9994883775841 -163.6971610167
52.20000000000000 0.9977668123682 -162.0104467294
52.30000000000000 0.9973782212899 -154.6334665795
52.40000000000001 0.9990560003734 -171.1793324093
52.50000000000000 0.9989963948134 -156.3850798043
52.60000000000000 0.9918272417628 -178.4632346642
52.70000000000000 0.9971761299067 -172.1759232202
52.80000000000000 0.9993298636405 -154.9633373446
52.90000000000001 0.9997570488354 -163.7068444093
53.00000000000000 0.9992535568665 -167.3926636927
53.10000000000000 0.9246686104024 -94.89956956184
53.20000000000000 0.9994944705203 -160.5319562778
53.30000000000000 0.9928701193891 -157.1907595021
53.40000000000001 0.9954640016084 173.69575248627
53.50000000000000 0.9951294101292 -178.1158650982
53.60000000000000 0.9990869240261 -170.6044611927
53.70000000000000 0.9990866711554 -165.4487998543
53.80000000000000 0.9168943558701 112.20927470420
53.90000000000001 0.9963164567670 -149.3145962625
54.00000000000000 0.9992178590962 -155.5383340127
54.10000000000000 0.9893265580152 -174.5584017612
54.20000000000000 0.9985128314309 -172.4113768284
54.30000000000000 0.9259772108611 26.952488184268
54.40000000000001 0.9927513034401 170.41394925102
54.50000000000000 0.9973510292017 -174.1946396293
54.60000000000000 0.9991406555977 -166.3969509292
54.70000000000000 0.9992954438713 -159.6219217139
54.80000000000000 0.9991225512007 -160.9226378292
54.90000000000001 0.9878780515444 -145.7024007214
55.00000000000000 0.9984542228890 -164.1053114731
55.10000000000000 0.9987626360789 -170.2784395053
55.20000000000000 0.9982098026298 -173.7400671343
55.30000000000000 0.9921681092722 158.45445165339
55.40000000000001 0.9982675646614 -162.2885842326
55.50000000000000 0.9961282227026 -134.9276345940
55.60000000000000 0.9993980810401 -162.9103423244
55.70000000000000 0.9976255420100 -154.9785211212
55.80000000000000 0.8885243397160 147.71110295855
55.90000000000001 0.9991369284076 -172.4661232757
56.00000000000000 0.9981222480908 -155.5344030924
56.10000000000000 0.9959871759231 -178.8914748246
56.20000000000000 0.9921262890260 -132.3340070737
56.30000000000000 0.9984222446417 -169.5535345742
56.40000000000001 0.9993978592826 -170.8367807879
56.50000000000000 0.9989812281573 -157.7314194998
56.60000000000000 0.9988837649651 -170.3123057305
56.70000000000000 0.9857544772311 151.44643666956
56.80000000000000 0.9965418477430 -143.6575545569
56.90000000000001 0.9991629519797 -153.9289374695
57.00000000000000 0.9992688538434 -164.3213507127
57.10000000000000 0.9984318901189 -172.0091825546
57.20000000000000 0.9851211521143 149.27908683244
57.30000000000000 0.9986309384117 -148.5648204725
57.40000000000001 0.9981614064975 -154.9606981208
57.50000000000001 0.9996090845954 -161.8083251605
57.60000000000000 0.9992284987193 -165.2341264171
57.70000000000000 0.9971368513666 -176.6430605933
57.80000000000000 0.9979941693358 -175.9370790363
57.90000000000001 0.9984360167676 -170.8388193852
58.00000000000001 0.9980584524734 -166.5990672158
58.10000000000000 0.9912258884932 163.65989284990
58.20000000000000 0.9995934048394 -159.7514729537
58.30000000000000 0.9982668026413 -151.7220543666
58.40000000000001 0.9211301019896 169.70908413323
58.50000000000001 0.9981776587174 -171.2681964390
58.60000000000000 0.9992708086381 -153.9869216131
58.70000000000000 0.9997254355938 -164.0483381986
58.80000000000000 0.9970765481190 -154.5839167891
58.90000000000001 0.8279782240244 141.18204595107
59.00000000000001 0.9959794767348 -169.6505114172
59.10000000000000 0.9947961534335 -169.7669817544
59.20000000000000 0.9977576797824 -177.2543521298
59.30000000000000 0.9993301997342 -168.1116575664
59.40000000000001 0.9992696452734 -165.8626223994
59.50000000000001 0.9761676767075 149.84413326601