! Sonnet Data File
! From: em Version : 18.56
! From Project: N1000_Lossy_0o01-100exp_nd_nadap
! Data is De-embedded 
! Data File Written: 03/04/2023 10:16:55
!< HDATE 03/04/2023 09:39:06
!< MDATE 03/04/2023 09:39:06
# GHZ S MA R 50.00000
0.100000000000000 0.9850743185299 -3.439849824005
0.200000000000000 0.9593754759652 -5.631852435573
0.300000000000000 0.9396908514320 -7.053188669811
0.400000000000000 0.9263225800927 -8.243969521418
0.500000000000000 0.9166095426251 -9.397438775127
0.600000000000000 0.9087823754990 -10.55857754750
0.700000000000000 0.9019083717973 -11.72977003664
0.800000000000000 0.8955190273301 -12.90395995400
0.900000000000000 0.8893838031314 -14.07371821284
1.000000000000000 0.8833933983758 -15.23332239086
1.100000000000000 0.8775003151368 -16.37889801541
1.200000000000000 0.8716880728145 -17.50808356118
1.300000000000000 0.8659550090031 -18.61963913498
1.400000000000000 0.8603057383202 -19.71311062479
1.500000000000000 0.8547467378109 -20.78856892720
1.600000000000000 0.8492841869762 -21.84641735534
1.700000000000000 0.8439230364247 -22.88725421496
1.800000000000000 0.8386667302571 -23.91177771307
1.900000000000000 0.8335172574109 -24.92072229974
2.000000000000000 0.8284753498544 -25.91481775573
2.100000000000000 0.8235407281716 -26.89476435005
2.200000000000000 0.8187123430669 -27.86121907110
2.300000000000000 0.8139885888748 -28.81478927383
2.400000000000000 0.8093674805469 -29.75603112167
2.500000000000000 0.8048467937587 -30.68545098314
2.600000000000000 0.8004241717293 -31.60350852061
2.700000000000000 0.7960972038924 -32.51062062723
2.800000000000000 0.7918634817976 -33.40716566541
2.900000000000000 0.7877206372075 -34.29348766781
3.000000000000000 0.7836663666679 -35.16990030339
3.100000000000000 0.7796984460689 -36.03669050577
3.200000000000000 0.7758147379971 -36.89412172191
3.300000000000000 0.7720131940493 -37.74243677763
3.400000000000000 0.7682918537502 -38.58186037849
3.500000000000000 0.7646488412929 -39.41260127666
3.600000000000000 0.7610823609863 -40.23485413942
3.700000000000000 0.7575906920343 -41.04880115617
3.800000000000000 0.7541721830808 -41.85461341881
3.900000000000000 0.7508252468065 -42.65245210818
4.000000000000000 0.7475483547611 -43.44246951496
4.100000000000001 0.7443400325374 -44.22480992057
4.200000000000000 0.7411988553429 -44.99961035962
4.300000000000001 0.7381234439876 -45.76700128236
4.400000000000000 0.7351124612611 -46.52710710275
4.500000000000000 0.7321646088091 -47.28004682564
4.600000000000001 0.7292786241620 -48.02593431398
4.700000000000000 0.7264532783044 -48.76487880365
4.800000000000001 0.7236873734219 -49.49698520546
4.900000000000000 0.7209797410188 -50.22235450152
5.000000000000000 0.7183292401007 -50.94108390649
5.100000000000001 0.7157347557285 -51.65326720371
5.200000000000000 0.7131951976547 -52.35899494236
5.300000000000001 0.7107094991983 -53.05835470422
5.400000000000000 0.7082766161200 -53.75143121151
5.500000000000000 0.7058955257451 -54.43830655874
5.600000000000001 0.7035652261100 -55.11906035003
5.700000000000000 0.7012847352624 -55.79376988828
5.800000000000001 0.6990530905257 -56.46251025159
5.900000000000000 0.6968693479356 -57.12535446020
6.000000000000000 0.6947325816683 -57.78237357638
6.100000000000001 0.6926418835722 -58.43363684261
6.200000000000000 0.6905963626491 -59.07921173831
6.300000000000001 0.6885951446607 -59.71916410294
6.400000000000000 0.6866373717126 -60.35355821034
6.500000000000000 0.6847222019107 -60.98245687172
6.600000000000001 0.6828488089658 -61.60592147834
6.700000000000000 0.6810163818915 -62.22401209354
6.800000000000001 0.6792241246758 -62.83678750844
6.900000000000000 0.6774712560059 -63.44430531969
7.000000000000000 0.6757570089434 -64.04662196068
7.100000000000001 0.6740806306722 -64.64379277088
7.200000000000000 0.6724413822196 -65.23587203712
7.300000000000001 0.6708385382173 -65.82291305124
7.400000000000000 0.6692713866182 -66.40496813251
7.500000000000001 0.6677392284690 -66.98208867818
7.600000000000001 0.6662413776570 -67.55432519218
7.700000000000000 0.6647771606876 -68.12172732608
7.800000000000001 0.6633459164189 -68.68434389114
7.900000000000000 0.6619469958397 -69.24222289151
8.000000000000000 0.6605797618199 -69.79541153847
8.100000000000000 0.6592435888790 -70.34395627189
8.200000000000001 0.6579378629089 -70.88790275579
8.300000000000001 0.6566619809211 -71.42729588582
8.400000000000000 0.6554153507539 -71.96217977679
8.500000000000000 0.6541973907541 -72.49259773859
8.600000000000001 0.6530075294124 -73.01859223271
8.700000000000001 0.6518452049224 -73.54020479826
8.800000000000001 0.6507098646605 -74.05747595017
8.900000000000000 0.6496009644358 -74.57044498417
9.000000000000000 0.6485179675168 -75.07914970497
9.100000000000001 0.6474603431536 -75.58362596433
9.200000000000001 0.6464275642696 -76.08390689219
9.300000000000001 0.6454191035999 -76.58002155419
9.400000000000000 0.6444344267688 -77.07199247677
9.500000000000000 0.6434729788494 -77.55983075506
9.600000000000001 0.6425341556737 -78.04352548688
9.700000000000001 0.6416172344258 -78.52301796912
9.800000000000001 0.6407211748475 -78.99812709897
9.900000000000000 0.6398438807040 -79.46826854923
10.00000000000000 0.6389777972242 -79.93073481460
10.10000000000000 0.6379848552669 -80.31869633292
10.20000000000000 0.6374285774897 -80.88798256366
10.30000000000000 0.6366096798552 -81.33500162946
10.40000000000000 0.6358316841395 -81.78545963610
10.50000000000000 0.6350773028890 -82.23378241359
10.60000000000000 0.6343433386292 -82.67903979024
10.70000000000000 0.6336285362322 -83.12096183025
10.80000000000000 0.6329321579598 -83.55945483942
10.90000000000000 0.6322536547189 -83.99448816428
11.00000000000000 0.6315925610183 -84.42605777923
11.10000000000000 0.6309484535781 -84.85417191911
11.20000000000000 0.6303209320636 -85.27884443038
11.30000000000000 0.6297096083941 -85.70009114277
11.40000000000000 0.6291140993721 -86.11792744293
11.50000000000000 0.6285340199828 -86.53236614155
11.60000000000000 0.6279689754889 -86.94341501329
11.70000000000000 0.6274185501324 -87.35107330396
11.80000000000000 0.6268822888295 -87.75532605301
11.90000000000000 0.6263596646788 -88.15613393465
12.00000000000000 0.6258500162570 -88.55341343691
12.10000000000000 0.6253524146515 -88.94699423908
12.20000000000000 0.6248653462295 -89.33651560232
12.30000000000000 0.6243858226605 -89.72112763364
12.40000000000000 0.6239061963207 -90.09837218471
12.50000000000000 0.6233967316970 -90.45739971071
12.60000000000000 0.6226562333014 -90.55954934433
12.70000000000000 0.6230228910071 -91.34376188851
12.80000000000000 0.6224446407003 -91.67608162276
12.90000000000000 0.6220074428687 -92.03517358385
13.00000000000000 0.6216067915478 -92.39773494031
13.10000000000000 0.6212264469762 -92.75981794840
13.20000000000000 0.6208613663711 -93.12020483522
13.30000000000000 0.6205093713820 -93.47840577334
13.40000000000000 0.6201692927377 -93.83419288437
13.50000000000000 0.6198403919890 -94.18745118872
13.60000000000000 0.6195221400807 -94.53812053645
13.70000000000000 0.6192141194554 -94.88616961793
13.80000000000000 0.6189159757058 -95.23158301623
13.90000000000000 0.6186273912651 -95.57435411853
14.00000000000000 0.6183480695916 -95.91448083989
14.10000000000000 0.6180777244393 -96.25196271639
14.20000000000000 0.6178160713439 -96.58679859464
14.30000000000000 0.6175628194881 -96.91898441614
14.40000000000000 0.6173176623940 -97.24851066411
14.50000000000000 0.6170802656029 -97.57535895035
14.60000000000000 0.6168502486161 -97.89949695303
14.70000000000000 0.6166271563144 -98.22087029772
14.80000000000000 0.6164104107479 -98.53938865100
14.90000000000000 0.6161992244696 -98.85490026274
15.00000000000000 0.6159924331962 -99.16714168294
15.10000000000000 0.6157881433295 -99.47562865035
15.20000000000000 0.6155829014727 -99.77938811781
15.30000000000000 0.6153694155121 -100.0761748809
15.40000000000000 0.6151287562554 -100.3594723678
15.50000000000000 0.6147932858412 -100.5995091471
15.60000000000000 0.6167515309860 -100.0389461305
15.70000000000000 0.6157934777591 -101.5039043638
15.80000000000000 0.6151469306239 -101.7125726863
15.90000000000000 0.6148783659549 -101.9797974248
16.00000000000000 0.6146883329112 -102.2588916386
16.10000000000000 0.6145302760241 -102.5412157285
16.20000000000000 0.6143901374564 -102.8239905154
16.30000000000000 0.6142621454136 -103.1060498165
16.40000000000000 0.6141434263311 -103.3868167437
16.50000000000000 0.6140323271321 -103.6659689893
16.60000000000000 0.6139277695581 -103.9433051974
16.70000000000000 0.6138289563813 -104.2186817586
16.80000000000000 0.6137352081646 -104.4919752928
16.90000000000000 0.6136458318242 -104.7630485271
17.00000000000000 0.6135599235943 -105.0316921280
17.10000000000000 0.6134758143589 -105.2974490559
17.20000000000000 0.6133882981843 -105.5586924487
17.30000000000000 0.6132459887533 -105.7955493334
17.40000000000000 0.6133378732768 -106.1076507367
17.50000000000000 0.6132288111596 -106.3543748695
17.60000000000000 0.6131505913401 -106.6059791574
17.70000000000000 0.6130759386738 -106.8554236677
17.80000000000000 0.6129985322650 -107.1008632563
17.90000000000000 0.6129122799356 -107.3402741981
18.00000000000000 0.6128069051115 -107.5697484708
18.10000000000000 0.6126606481482 -107.7791776985
18.20000000000000 0.6124243666021 -107.9305517069
18.30000000000000 0.6127445466667 -107.6731765345
18.40000000000000 0.6170174891967 -109.1521007257
18.50000000000000 0.6141079492642 -109.0978578812
18.60000000000000 0.6136116381237 -109.2604444636
18.70000000000000 0.6134060342733 -109.4631655837
18.80000000000000 0.6132902245944 -109.6786657004
18.90000000000000 0.6132135055107 -109.8988189676
19.00000000000000 0.6131568396421 -110.1202369039
19.10000000000000 0.6131109017073 -110.3410582273
19.20000000000000 0.6130696728344 -110.5598381057
19.30000000000000 0.6130274797821 -110.7747832958
19.40000000000000 0.6129758066005 -110.9821969912
19.50000000000000 0.6128959686344 -111.1690019217
19.60000000000000 0.6129711457247 -111.1983865470
19.70000000000000 0.6139110708087 -111.8229161847
19.80000000000000 0.6132793864827 -111.9407821364
19.90000000000000 0.6131366009140 -112.1209630883
20.00000000000000 0.6130450699414 -112.3061054088
20.10000000000000 0.6129486943024 -112.4829049393
20.20000000000000 0.6128127116664 -112.6351538279
20.30000000000000 0.6125965813542 -112.7078699166
20.40000000000000 0.6144021900440 -112.1412518253
20.50000000000000 0.6171924983403 -113.9357530423
20.60000000000000 0.6144760713738 -113.8282279942
20.70000000000000 0.6139273923611 -113.9201621316
20.80000000000000 0.6136429283470 -114.0229813102
20.90000000000000 0.6140936719657 -113.8840239254
21.00000000000000 0.6151024558522 -114.6956856662
21.10000000000000 0.6141408686012 -114.7476764180
21.20000000000000 0.6139298773064 -114.8815724979
21.30000000000000 0.6138342407155 -115.0260802452
21.40000000000000 0.6137884469171 -115.1651522537
21.50000000000000 0.6137998842704 -115.2867249646
21.60000000000000 0.6139770322258 -115.3688575120
21.70000000000000 0.6148872539662 -115.3586189814
21.80000000000000 0.6195671630563 -115.3429111993
21.90000000000000 0.6138856215824 -115.9728340697
22.00000000000000 0.6318027521949 -114.9215371897
22.10000000000000 0.6256133783728 -116.2728376329
22.20000000000000 0.6225374917838 -117.4939355737
22.30000000000000 0.6176348934561 -117.4735742297
22.40000000000000 0.6157191408684 -117.4157456766
22.50000000000000 0.6189384271096 -116.8354280627
22.60000000000000 0.6183035119642 -117.9894275766
22.70000000000000 0.6160228311361 -117.9808771588
22.80000000000000 0.6149777871731 -117.8996161857
22.90000000000000 0.6266802836868 -117.9558287614
23.00000000000000 0.6175120422263 -118.5461976825
23.10000000000000 0.6158351597202 -118.4533216156
23.20000000000000 0.6179446079006 -117.7099563702
23.30000000000000 0.6275645881387 -117.7224135126
23.40000000000000 0.6218204040055 -119.7276689378
23.50000000000000 0.6184669302611 -119.6612101102
23.60000000000000 0.6173375206950 -119.6842947502
23.70000000000000 0.6166343757494 -119.7097274973
23.80000000000000 0.6161713274425 -119.6100200834
23.90000000000000 0.6279046395728 -120.3216002611
24.00000000000000 0.6174512077679 -120.0921342526
24.10000000000000 0.6206621935681 -120.6646077938
24.20000000000000 0.6169621932791 -120.3728560771
24.30000000000000 0.6256795846810 -121.1814681848
24.40000000000000 0.6167089202661 -120.6883187284
24.50000000000000 0.6408820332879 -120.4430685041
24.60000000000000 0.6215584936099 -121.4058981196
24.70000000000000 0.6256822274024 -121.8443148881
24.80000000000000 0.6191166115380 -121.4566833124
24.90000000000000 0.6279119163963 -121.7824194553
25.00000000000000 0.6214843718333 -122.1876055920
25.10000000000000 0.6184139177025 -121.9284997880
25.20000000000000 0.6179780181268 -122.0608423105
25.30000000000000 0.6235871607326 -121.0356650478
25.40000000000000 0.6209404856470 -122.0002715638
25.50000000000000 0.6254010212243 -122.8828087211
25.60000000000000 0.6242854205258 -122.2871099853
25.70000000000000 0.6274883453372 -123.6437702259
25.80000000000000 0.6214912344256 -123.4990181533
25.90000000000000 0.6289131028565 -123.9238239137
26.00000000000000 0.6202055767446 -123.6236645318
26.10000000000000 0.6364610015151 -123.3081000829
26.20000000000000 0.6200462144193 -123.8329798000
26.30000000000000 0.6273798045935 -123.8768684145
26.40000000000000 0.6275791793973 -124.7067552875
26.50000000000000 0.6206649156935 -124.1002960743
26.60000000000000 0.6243089957098 -124.7773903140
26.70000000000000 0.6214819829396 -124.3319147950
26.80000000000000 0.6318668831550 -125.1578454851
26.90000000000000 0.6275561780790 -125.3982100575
27.00000000000000 0.6233324075166 -125.3266357925
27.10000000000000 0.6221946778163 -125.3081649137
27.20000000000000 0.6206058275841 -125.0442562926
27.30000000000000 0.6319823559590 -125.2740777889
27.40000000000000 0.6256118170904 -125.1126824687
27.50000000000000 0.6277703974777 -126.2258746273
27.60000000000000 0.6241379573674 -126.1654206394
27.70000000000000 0.6225848367803 -126.1130687837
27.80000000000000 0.6204858256169 -125.7333781208
27.90000000000000 0.6375933659097 -125.7038730137
28.00000000000000 0.6245913419838 -126.6589697327
28.10000000000000 0.6292753689162 -127.0617433911
28.20000000000000 0.6249479747770 -126.9767951301
28.30000000000000 0.6276907305367 -126.4034196642
28.40000000000000 0.6240730364483 -126.6354316087
28.50000000000000 0.6356000280188 -126.5274153648
28.60000000000000 0.6273390128881 -127.6670469277
28.70000000000000 0.6250567641905 -127.6123130567
28.80000000000000 0.6233105650332 -127.4733903576
28.90000000000000 0.6380173638971 -127.4793104931
29.00000000000000 0.6235409712403 -127.3898423444
29.10000000000000 0.6329776238294 -128.2719924822
29.20000000000000 0.6271124392216 -128.2786740848
29.30000000000000 0.6295518285333 -128.6397830635
29.40000000000000 0.6257023895524 -128.4732169829
29.50000000000000 0.6249496626780 -128.4335675775
29.60000000000000 0.6436189938818 -127.2571593712
29.70000000000000 0.6321844500803 -128.9703201121
29.80000000000000 0.6379739892987 -128.3959012616
29.90000000000000 0.6294187853190 -129.2131717218
30.00000000000000 0.6272869150809 -129.1432293816
30.10000000000000 0.6255718517779 -129.1262687090
30.20000000000000 0.6355790383933 -128.0187867289
30.30000000000000 0.6300295124334 -129.5545089044
30.40000000000000 0.6276003007887 -129.5517563921
30.50000000000000 0.6267885153015 -129.3530792550
30.60000000000000 0.6279411309949 -129.5027255810
30.70000000000000 0.6301948347981 -128.4765818888
30.80000000000000 0.6462309507573 -129.9838997782
30.90000000000000 0.6336514424735 -130.7187338022
31.00000000000000 0.6300788902958 -129.9810549959
31.10000000000000 0.6384720692009 -130.6279273409
31.20000000000000 0.6318502624159 -130.8375039708
31.30000000000000 0.6277598124521 -130.5811222734
31.40000000000000 0.6429223933826 -129.9343443100
31.50000000000000 0.6403595561993 -131.2210447891
31.60000000000000 0.6354168087639 -130.8203288679
31.70000000000000 0.6309980768828 -130.7538927973
31.80000000000000 0.6328875566802 -131.6329044626
31.90000000000000 0.6447322581268 -130.6922609336
32.00000000000000 0.6447031466701 -130.8305905013
32.10000000000000 0.6370401084109 -132.1010611019
32.20000000000000 0.6332035625058 -132.0423147982
32.30000000000000 0.6341554382131 -132.1825441046
32.40000000000000 0.6321098203971 -132.0185272312
32.50000000000000 0.6299209252914 -132.0466860359
32.60000000000000 0.6396460220823 -131.0122356557
32.70000000000000 0.6374138635964 -132.4954775497
32.80000000000000 0.6418825597729 -132.9385876066
32.90000000000000 0.6352772294323 -132.9129722598
33.00000000000000 0.6322961651905 -132.7964958706
33.10000000000000 0.6392911939720 -132.8598701907
33.20000000000000 0.6404457627522 -132.2419195006
33.30000000000000 0.6339142804722 -133.0662547507
33.40000000000000 0.6398543966270 -131.9677602037
33.50000000000000 0.6417765440829 -133.4136555716
33.60000000000000 0.6342891754089 -133.4749786537
33.70000000000000 0.6372542385124 -133.4221243102
33.80000000000000 0.6354911212642 -132.6457055713
33.90000000000000 0.6414421407593 -133.9607351839
34.00000000000000 0.6417409571344 -133.7550205209
34.10000000000000 0.6358963411343 -134.0486121858
34.20000000000000 0.6331655810743 -133.7111353471
34.30000000000000 0.6488377809203 -134.2703057503
34.40000000000001 0.6356978050697 -134.0692342010
34.50000000000000 0.6420557883723 -134.5680571234
34.60000000000000 0.6368936494482 -134.5735953836
34.70000000000000 0.6368247844776 -134.6793166378
34.80000000000000 0.6341239489363 -134.5439180008
34.90000000000001 0.6370784440832 -133.6457578772
35.00000000000000 0.6382739746895 -134.9516896366
35.10000000000000 0.6425779136616 -134.1556137284
35.20000000000000 0.6480640652865 -135.0424081226
35.30000000000000 0.6404345827143 -135.3964687683
35.40000000000001 0.6379043877309 -135.3658351472
35.50000000000000 0.6347176913279 -134.8741733261
35.60000000000000 0.6434749582554 -135.4722816514
35.70000000000000 0.6395852998137 -135.7364690100
35.80000000000000 0.6365432246644 -135.3644127444
35.90000000000001 0.6352359915954 -135.4980628673
36.00000000000000 0.6360044721047 -135.3888477413
36.10000000000000 0.6556543332168 -135.9295682352
36.20000000000000 0.6377970843757 -135.9075691148
36.30000000000000 0.6437859679857 -135.8306796140
36.40000000000001 0.6447232515506 -136.4608994776
36.50000000000000 0.6428226550491 -135.8942574262
36.60000000000000 0.6406961385954 -136.5392939397
36.70000000000000 0.6373516436144 -136.3607469818
36.80000000000000 0.6469959115707 -136.6176000738
36.90000000000001 0.6450220146251 -136.8679577831
37.00000000000000 0.6396300213333 -136.7302404883
37.10000000000000 0.6470157455108 -136.7932389239
37.20000000000000 0.6393284629663 -136.5148288289
37.30000000000000 0.6401110407927 -136.8003513862
37.40000000000001 0.6518567346361 -136.5748074091
37.50000000000000 0.6413890251582 -137.3061160814
37.60000000000000 0.6373664274774 -136.8934699458
37.70000000000000 0.6443113813214 -137.5149111694
37.80000000000000 0.6424811620412 -137.4592817872
37.90000000000001 0.6451674137898 -137.3081836567
38.00000000000000 0.6393015141279 -137.3964891358
38.10000000000000 0.6454911915777 -136.9825393248
38.20000000000000 0.6430056863836 -137.8788483248
38.30000000000000 0.6404540232225 -137.7832989516
38.40000000000001 0.6385946726805 -136.9640600045
38.50000000000000 0.6460752912867 -137.9733093514
38.60000000000000 0.6468929870697 -137.8670878378
38.70000000000000 0.6462304654236 -138.1006675087
38.80000000000000 0.6433564446382 -137.0809303884
38.90000000000001 0.6434831365618 -138.3267715554
39.00000000000000 0.6449717104596 -138.1754746140
39.10000000000000 0.6472376301068 -138.4807954503
39.20000000000000 0.6500743042435 -138.8351293401
39.30000000000000 0.6407696935242 -138.5290466616
39.40000000000001 0.6514413216906 -138.9526962551
39.50000000000000 0.6527293987522 -138.4209611012
39.60000000000000 0.6486060902887 -138.6588409329
39.70000000000000 0.6455286248411 -138.8314782643
39.80000000000000 0.6516034071174 -139.3336036835
39.90000000000001 0.6500006150994 -139.1347560159
40.00000000000000 0.6484045202430 -139.5005014452
40.10000000000000 0.6448910591802 -139.4175568232
40.20000000000000 0.6411290276668 -138.5917487100
40.30000000000000 0.6573486319960 -139.8818260895
40.40000000000001 0.6492351629144 -139.7932408715
40.50000000000000 0.6522733806118 -139.7275800088
40.60000000000000 0.6446639469363 -139.6273610503
40.70000000000000 0.6457961789619 -139.5903456569
40.80000000000000 0.6542719280746 -139.9815197482
40.90000000000001 0.6539341484230 -140.2962715760
41.00000000000000 0.6543183534841 -140.1670049265
41.10000000000000 0.6485853988271 -140.3402074992
41.20000000000000 0.6467888898446 -140.3046492041
41.30000000000000 0.6459270109422 -140.2333776731
41.40000000000001 0.6582539635572 -140.0937356571
41.50000000000000 0.6465953212394 -140.1808361362
41.60000000000000 0.6534483655989 -139.6828217443
41.70000000000000 0.6503864598873 -140.7537199795
41.80000000000000 0.6493613075659 -140.8411773364
41.90000000000001 0.6474895130814 -140.7878459798
42.00000000000000 0.6510084618824 -140.8541020810
42.10000000000000 0.6515324404158 -140.5102974930
42.20000000000000 0.6523998846642 -141.1932081178
42.30000000000000 0.6502779635881 -141.2255284301
42.40000000000001 0.6477057341288 -141.1477481470
42.50000000000000 0.6488816966169 -141.0761670319
42.60000000000000 0.6538576756841 -141.1428020641
42.70000000000000 0.6496005108204 -141.3876885120
42.80000000000000 0.6554067804397 -140.9816409375
42.90000000000001 0.6500873017233 -141.4989831304
43.00000000000000 0.6533402513434 -141.7540121492
43.10000000000000 0.6494893212847 -141.7029658764
43.20000000000000 0.6527615736461 -141.6468259823
43.30000000000000 0.6490189510832 -141.4106047553
43.40000000000001 0.6526647216264 -140.9093028152
43.50000000000000 0.6508147275822 -141.9257015932
43.60000000000000 0.6553370582528 -141.8137086637
43.70000000000000 0.6579906857232 -141.8830669078
43.80000000000000 0.6522383537950 -141.9778358992
43.90000000000001 0.6575358236114 -142.2845133709
44.00000000000000 0.6542203456275 -142.0040824144
44.10000000000000 0.6505433165720 -142.3683014447
44.20000000000000 0.6533111970804 -142.3642189003
44.30000000000000 0.6473235798792 -141.9859642501
44.40000000000001 0.6505260578918 -141.3025448444
44.50000000000000 0.6570065863309 -142.8317676524
44.60000000000000 0.6515315337861 -142.6944527727
44.70000000000000 0.6569745459984 -142.0940393114
44.80000000000000 0.6603876917549 -142.9258329403
44.90000000000001 0.6564568466940 -143.0319967220
45.00000000000000 0.6545249040430 -143.0217581956
45.10000000000000 0.6515404203949 -142.6046578851
45.20000000000000 0.6528864505396 -143.1198466176
45.30000000000000 0.6606612426160 -142.9959856402
45.40000000000001 0.6533841648114 -143.2390945688
45.50000000000000 0.6522813223707 -143.2432481694
45.60000000000000 0.6582456562348 -143.2470429111
45.70000000000000 0.6578112111044 -142.6646020780
45.80000000000000 0.6543783870709 -143.5662625370
45.90000000000001 0.6505341244870 -143.3361268399
46.00000000000000 0.6516878852637 -142.7451329986
46.10000000000000 0.6607587158331 -143.6511409825
46.20000000000000 0.6565214692994 -143.0763710561
46.30000000000000 0.6560632184137 -143.8166593612
46.40000000000001 0.6537656983006 -143.7137878900
46.50000000000000 0.6581300082862 -143.6499395333
46.60000000000000 0.6559065352245 -143.4530468946
46.70000000000000 0.6567597378456 -144.1597953159
46.80000000000000 0.6585809781448 -144.0803036617
46.90000000000001 0.6543650523719 -143.8265048001
47.00000000000000 0.6606332822583 -143.7051710124
47.10000000000000 0.6628965347346 -143.6484114518
47.20000000000000 0.6556974293162 -144.3498456178
47.30000000000000 0.6660306234066 -144.1520691322
47.40000000000001 0.6575720280812 -144.4608582466
47.50000000000000 0.6586393365103 -144.6364139550
47.60000000000000 0.6568503059412 -144.5849962746
47.70000000000000 0.6597526818495 -144.7992821155
47.80000000000000 0.6573481573314 -144.7968920992
47.90000000000001 0.6551507599622 -144.5813122969
48.00000000000000 0.6560369111905 -144.8268210036
48.10000000000000 0.6575633616395 -144.8135158651
48.20000000000000 0.6585875984670 -145.0377663148
48.30000000000000 0.6635180300737 -144.9645398057
48.40000000000001 0.6569061172418 -145.0766613894
48.50000000000000 0.6613316506020 -144.5054971583
48.60000000000000 0.6578187416607 -145.1804958110
48.70000000000000 0.6643204372572 -145.3566253347
48.80000000000000 0.6571596778011 -144.5327237556
48.90000000000001 0.6594183101510 -145.4506807325
49.00000000000000 0.6571583207231 -145.3453307633
49.10000000000000 0.6592215467816 -145.4792758873
49.20000000000000 0.6592291114894 -145.5711040923
49.30000000000000 0.6571500325589 -145.5303773254
49.40000000000001 0.6586075639483 -145.1257344298
49.50000000000000 0.6672173925834 -145.2377927066
49.60000000000000 0.6612131528980 -145.0857596637
49.70000000000000 0.6602373065534 -145.8670982079
49.80000000000000 0.6601628217942 -145.9331539211
49.90000000000001 0.6607564733460 -145.2241756432
50.00000000000000 0.6571960585399 -145.9072068337
50.10000000000000 0.6591741760392 -146.0176690058
50.20000000000000 0.6568990907747 -144.4550270719
50.30000000000000 0.6639053222954 -146.2736702115
50.40000000000001 0.6599140360196 -146.0001121485
50.50000000000000 0.6608186912665 -146.3338661671
50.60000000000000 0.6598808388429 -146.3476981969
50.70000000000000 0.6585412173655 -145.8778637839
50.80000000000000 0.6599672948916 -146.3983876368
50.90000000000001 0.6600620404667 -145.8620883433
51.00000000000000 0.6606123422117 -146.1771761800
51.10000000000000 0.6618263797353 -146.6323461213
51.20000000000000 0.6586355460161 -146.5630854671
51.30000000000000 0.6607514550445 -146.3751142899
51.40000000000001 0.6668500015461 -146.3110560670
51.50000000000000 0.6593900146309 -146.7033483016
51.60000000000000 0.6565468435907 -146.3699299112
51.70000000000000 0.6620412231442 -146.8293945473
51.80000000000000 0.6608100156340 -146.5936803864
51.90000000000001 0.6580303497523 -146.7334777186
52.00000000000000 0.6631499126532 -146.8368282711
52.10000000000000 0.6670687566156 -146.7204068424
52.20000000000000 0.6612405103084 -147.1273952994
52.30000000000000 0.6670885495819 -147.1826547208
52.40000000000001 0.6670685894845 -147.2849708924
52.50000000000000 0.6613170554444 -146.8457798919
52.60000000000000 0.6624924790339 -147.3845411924
52.70000000000000 0.6616239453480 -147.3222079596
52.80000000000000 0.6634845108911 -146.9530916730
52.90000000000001 0.6655911496602 -147.6252049772
53.00000000000000 0.6622692882453 -147.5696690539
53.10000000000000 0.6622475661362 -147.5707705707
53.20000000000000 0.6666958585716 -147.6859910928
53.30000000000000 0.6640924555756 -147.7751566970
53.40000000000001 0.6636460967775 -147.7820002323
53.50000000000000 0.6648137756197 -147.6157175112
53.60000000000000 0.6673649988401 -147.8907178642
53.70000000000000 0.6644110323910 -147.9601430342
53.80000000000000 0.6643699518361 -147.8051665260
53.90000000000001 0.6634841415057 -147.9863743432
54.00000000000000 0.6651007977789 -147.5407835415
54.10000000000000 0.6640609328192 -148.0747381034
54.20000000000000 0.6693828687690 -148.0877740406
54.30000000000000 0.6644940660710 -148.2224167938
54.40000000000001 0.6617241900485 -148.1347044982
54.50000000000000 0.6624824117045 -147.9357406115
54.60000000000000 0.6648074108872 -148.2741048872
54.70000000000000 0.6659993618779 -148.4306331797
54.80000000000000 0.6667513328079 -148.4759312668
54.90000000000001 0.6660917203232 -148.4845770294
55.00000000000000 0.6700658316331 -148.4946105280
55.10000000000000 0.6684240274528 -148.6499034280
55.20000000000000 0.6677125672478 -148.6930190479
55.30000000000000 0.6656069673758 -148.7176234170
55.40000000000001 0.6650391869173 -148.6995960083
55.50000000000000 0.6647255393298 -148.7137915285
55.60000000000000 0.6638488674985 -148.7131013072
55.70000000000000 0.6670354300956 -148.8351934988
55.80000000000000 0.6709252792360 -148.8094404314
55.90000000000001 0.6728626978714 -148.7568371589
56.00000000000000 0.6690949750161 -149.0481547286
56.10000000000000 0.6661839845640 -149.0497159641
56.20000000000000 0.6691499426478 -149.0774960604
56.30000000000000 0.6708642454029 -149.0299141025
56.40000000000001 0.6681765480371 -149.2409762173
56.50000000000000 0.6664829196406 -149.2375371974
56.60000000000000 0.6679373472911 -149.1709204012
56.70000000000000 0.6719028393320 -148.9096197600
56.80000000000000 0.6687521604506 -149.3200920722
56.90000000000001 0.6651724351773 -149.2667275053
57.00000000000000 0.6698100348494 -149.4937846107
57.10000000000000 0.6699228584434 -149.5359672499
57.20000000000000 0.6687019274578 -149.5560062254
57.30000000000000 0.6662113262201 -149.5437315196
57.40000000000001 0.6663033591064 -149.2514882914
57.50000000000001 0.6701128561404 -149.7080089324
57.60000000000000 0.6684685800805 -149.5445181260
57.70000000000000 0.6704450098320 -149.7868503357
57.80000000000000 0.6688357935039 -149.8100500016
57.90000000000001 0.6696737974391 -149.8871379418
58.00000000000001 0.6681346708256 -149.9040059164
58.10000000000000 0.6659374841506 -149.8016093772
58.20000000000000 0.6682987275991 -149.9434984343
58.30000000000000 0.6684838076222 -149.9732801095
58.40000000000001 0.6679694461724 -149.6472784676
58.50000000000001 0.6693716659706 -150.1265779852
58.60000000000000 0.6718159803976 -149.9143708479
58.70000000000000 0.6694507586346 -149.7240505404
58.80000000000000 0.6737908401981 -150.1146755808
58.90000000000001 0.6695903007298 -150.1747079130
59.00000000000001 0.6736692036909 -150.2887668182
59.10000000000000 0.6688006769181 -150.3324710841
59.20000000000000 0.6729719169491 -150.0984480467
59.30000000000000 0.6681298398336 -150.3762811848
59.40000000000001 0.6709332975107 -150.1331106458
59.50000000000001 0.6715775946028 -150.4502825445