! Sonnet Data File
! From: em Version : 18.56
! From Project: N1000_0o01-100exp_nd_nadap
! Data is De-embedded 
! Data File Written: 03/04/2023 10:16:57
!< HDATE 02/25/2023 12:39:39
!< MDATE 02/25/2023 12:39:39
# GHZ S MA R 50.00000
0.010000000000000 0.9999999998209 -0.362548971140
0.010092621909870 0.9999999998096 -0.365906956140
0.010186101701560 0.9999999997954 -0.369296043795
0.010280447320933 0.9999999997939 -0.372716519055
0.010375666787452 0.9999999997897 -0.376168679248
0.010471768194855 0.9999999997755 -0.379652810950
0.010568759711848 0.9999999997769 -0.383169212139
0.010666649582795 0.9999999997868 -0.386718182092
0.010765446128423 0.9999999997741 -0.390300024647
0.010865157746525 0.9999999997470 -0.393915042011
0.010965792912678 0.9999999997598 -0.397563542253
0.011067360180960 0.9999999997513 -0.401245834419
0.011169868184678 0.9999999997499 -0.404962232439
0.011273325637105 0.9999999997414 -0.408713051869
0.011377741332215 0.9999999997300 -0.412498611524
0.011483124145435 0.9999999997328 -0.416319233471
0.011589483034398 0.9999999997158 -0.420175241082
0.011696827039704 0.9999999997087 -0.424066963589
0.011805165285688 0.9999999996945 -0.427994733155
0.011914506981198 0.9999999997002 -0.431958880636
0.012024861420374 0.9999999997002 -0.435959743405
0.012136237983442 0.9999999996959 -0.439997663716
0.012248646137509 0.9999999996831 -0.444072982845
0.012362095437368 0.9999999996788 -0.448186047606
0.012476595526309 0.9999999996845 -0.452337208718
0.012592156136941 0.9999999996589 -0.456526817223
0.012708787092021 0.9999999996177 -0.460755228398
0.012826498305281 0.9999999996334 -0.465022805334
0.012945299782279 0.9999999996206 -0.469329907212
0.013065201621247 0.9999999996163 -0.473676902984
0.013186214013948 0.9999999996135 -0.478064159318
0.013308347246541 0.9999999996035 -0.482492051350
0.013431611700460 0.9999999995865 -0.486960953888
0.013556017853294 0.9999999995794 -0.491471248905
0.013681576279675 0.9999999995637 -0.496023316416
0.013808297652181 0.9999999995467 -0.500617545228
0.013936192742242 0.9999999995552 -0.505254327405
0.014065272421052 0.9999999995367 -0.509934054031
0.014195547660501 0.9999999995467 -0.514657124004
0.014327029534098 0.9999999995055 -0.519423939478
0.014459729217920 0.9999999995055 -0.524234904557
0.014593657991558 0.9999999995048 -0.529090428883
0.014728827239075 0.9999999994884 -0.533990926002
0.014865248449979 0.9999999994429 -0.538936808806
0.015002933220192 0.9999999994600 -0.543928502562
0.015141893253044 0.9999999994572 -0.548966427975
0.015282140360259 0.9999999994458 -0.554051014866
0.015423686462966 0.9999999994209 -0.559182694682
0.015566543592711 0.9999999994088 -0.564361903755
0.015710723892474 0.9999999993882 -0.569589084600
0.015856239617711 0.9999999993996 -0.574864675496
0.016003103137387 0.9999999993804 -0.580189130027
0.016151326935031 0.9999999993456 -0.585562897866
0.016300923609798 0.9999999993222 -0.590986439105
0.016451905877537 0.9999999993087 -0.596460211227
0.016604286571875 0.9999999993101 -0.601984682460
0.016758078645308 0.9999999992881 -0.607560320052
0.016913295170297 0.9999999992831 -0.613187597761
0.017069949340384 0.9999999992632 -0.618866996020
0.017228054471314 0.9999999992255 -0.624598996233
0.017387624002163 0.9999999992156 -0.630384084037
0.017548671496482 0.9999999991914 -0.636222753693
0.017711210643451 0.9999999991886 -0.642115500113
0.017875255259042 0.9999999991630 -0.648062823089
0.018040819287194 0.9999999991460 -0.654065230877
0.018207916800995 0.9999999991140 -0.660123231728
0.018376562003882 0.9999999990905 -0.666237340730
0.018546769230847 0.9999999990749 -0.672408076549
0.018718552949656 0.9999999990600 -0.678635965499
0.018891927762077 0.9999999990429 -0.684921536659
0.019066908405123 0.9999999990223 -0.691265321058
0.019243509752303 0.9999999989911 -0.697667863397
0.019421746814890 0.9999999989783 -0.704129703001
0.019601634743192 0.9999999989477 -0.710651392540
0.019783188827842 0.9999999989257 -0.717233482892
0.019966424501098 0.9999999988880 -0.723876534858
0.020151357338156 0.9999999988745 -0.730581114122
0.020338003058470 0.9999999988440 -0.737347788805
0.020526377527093 0.9999999988113 -0.744177135326
0.020716496756021 0.9999999987829 -0.751069733030
0.020908376905558 0.9999999987609 -0.758026169235
0.021102034285686 0.9999999987282 -0.765047033371
0.021297485357455 0.9999999987019 -0.772132923164
0.021494746734380 0.9999999986763 -0.779284439103
0.021693835183852 0.9999999986323 -0.786502190465
0.021894767628566 0.9999999986024 -0.793786790915
0.022097561147959 0.9999999985740 -0.801138859486
0.022302232979660 0.9999999985349 -0.808559020575
0.022508800520955 0.9999999985101 -0.816047903134
0.022717281330269 0.9999999984681 -0.823606145877
0.022927693128657 0.9999999984348 -0.831234389625
0.023140053801307 0.9999999984042 -0.838933284964
0.023354381399065 0.9999999983722 -0.846703483447
0.023570694139967 0.9999999983204 -0.854545646877
0.023789010410789 0.9999999982877 -0.862460440958
0.024009348768607 0.9999999982507 -0.870448539199
0.024231727942376 0.9999999981996 -0.878510618522
0.024456166834525 0.9999999981463 -0.886647365771
0.024682684522557 0.9999999981076 -0.894859472664
0.024911300260678 0.9999999980742 -0.903147635959
0.025142033481428 0.9999999980319 -0.911512559731
0.025374903797336 0.9999999979868 -0.919954955698
0.025609931002585 0.9999999979342 -0.928475541915
0.025847135074696 0.9999999978912 -0.937075039848
0.026086536176226 0.9999999978444 -0.945754182676
0.026328154656480 0.9999999977911 -0.954513706984
0.026572011053245 0.9999999977406 -0.963354357649
0.026818126094530 0.9999999976827 -0.972276883772
0.027066520700333 0.9999999976348 -0.981282046652
0.027317215984414 0.9999999975723 -0.990370610178
0.027570233256096 0.9999999975115 -0.999543345231
0.027825594022071 0.9999999974543 -1.008801033261
0.028083319988232 0.9999999973975 -1.018144459773
0.028343433061513 0.9999999973371 -1.027574419052
0.028605955351758 0.9999999972771 -1.037091712206
0.028870909173593 0.9999999972011 -1.046697147166
0.029138317048328 0.9999999971495 -1.056391542921
0.029408201705871 0.9999999970767 -1.066175720559
0.029680586086656 0.9999999970202 -1.076050511736
0.029955493343598 0.9999999969307 -1.086016755417
0.030232946844058 0.9999999968625 -1.096075299181
0.030512970171829 0.9999999967915 -1.106226997100
0.030795587129142 0.9999999967169 -1.116472712182
0.031080821738691 0.9999999966306 -1.126813313607
0.031368698245669 0.9999999965578 -1.137249681767
0.031659241119835 0.9999999964768 -1.147782702897
0.031952475057592 0.9999999963915 -1.158413271512
0.032248424984085 0.9999999963148 -1.169142290741
0.032547116055319 0.9999999962207 -1.179970671175
0.032848573660301 0.9999999961347 -1.190899334946
0.033152823423194 0.9999999960463 -1.201929209048
0.033459891205500 0.9999999959546 -1.213061231033
0.033769803108251 0.9999999958609 -1.224296347057
0.034082585474235 0.9999999957664 -1.235635510417
0.034398264890230 0.9999999956580 -1.247079684804
0.034716868189266 0.9999999955682 -1.258629843651
0.035038422452907 0.9999999954652 -1.270286967854
0.035362955013551 0.9999999953497 -1.282052045769
0.035690493456753 0.9999999952435 -1.293926079075
0.036021065623571 0.9999999951373 -1.305910076260
0.036354699612933 0.9999999950208 -1.318005054411
0.036691423784025 0.9999999949054 -1.330212040677
0.037031266758699 0.9999999947775 -1.342532073165
0.037374257423911 0.9999999946571 -1.354966198660
0.037720424934170 0.9999999945310 -1.367515472542
0.038069798714023 0.9999999944110 -1.380180959841
0.038422408460551 0.9999999942753 -1.392963739557
0.038778284145895 0.9999999941460 -1.405864894393
0.039137456019804 0.9999999939951 -1.418885521509
0.039499954612207 0.9999999938583 -1.432026726651
0.039865810735805 0.9999999937141 -1.445289626922
0.040235055488693 0.9999999935678 -1.458675347363
0.040607720257004 0.9999999934211 -1.472185025914
0.040983836717573 0.9999999932645 -1.485819809671
0.041363436840633 0.9999999931061 -1.499580856999
0.041746552892532 0.9999999929434 -1.513469335987
0.042133217438473 0.9999999927815 -1.527486427292
0.042523463345287 0.9999999926067 -1.541633321209
0.042917323784222 0.9999999924259 -1.555911218487
0.043314832233764 0.9999999922615 -1.570321332273
0.043716022482485 0.9999999920768 -1.584864885921
0.044120928631912 0.9999999918831 -1.599543115508
0.044529585099427 0.9999999916966 -1.614357266744
0.044942026621192 0.9999999915049 -1.629308597734
0.045358288255102 0.9999999913019 -1.644398378653
0.045778405383767 0.9999999911046 -1.659627890766
0.046202413717513 0.9999999908940 -1.674998427160
0.046630349297428 0.9999999906795 -1.690511293312
0.047062248498413 0.9999999904652 -1.706167806353
0.047498148032285 0.9999999902372 -1.721969295150
0.047938084950892 0.9999999900122 -1.737917102905
0.048382096649260 0.9999999897732 -1.754012582764
0.048830220868779 0.9999999895344 -1.770257101957
0.049282495700406 0.9999999892883 -1.786652038875
0.049738959587901 0.9999999890344 -1.803198786478
0.050199651331101 0.9999999887805 -1.819898749288
0.050664610089213 0.9999999885200 -1.836753344930
0.051133875384144 0.9999999882480 -1.853764004861
0.051607487103860 0.9999999879751 -1.870932172823
0.052085485505777 0.9999999876889 -1.888259306631
0.052567911220185 0.9999999874031 -1.905746877275
0.053054805253696 0.9999999871101 -1.923396369241
0.053546208992737 0.9999999868090 -1.941209280999
0.054042164207060 0.9999999864990 -1.959187124186
0.054542713053299 0.9999999861787 -1.977331425718
0.055047898078550 0.9999999858545 -1.995643725264
0.055557762223989 0.9999999855233 -2.014125576954
0.056072348828521 0.9999999851774 -2.032778550350
0.056591701632463 0.9999999848371 -2.051604227595
0.057115864781265 0.9999999844833 -2.070604207481
0.057644882829259 0.9999999841206 -2.089780102024
0.058178800743450 0.9999999837447 -2.109133539637
0.058717663907333 0.9999999833670 -2.128666161544
0.059261518124756 0.9999999829739 -2.148379626173
0.059810409623810 0.9999999825773 -2.168275606788
0.060364385060759 0.9999999821673 -2.188355790513
0.060923491524008 0.9999999817561 -2.208621883373
0.061487776538101 0.9999999813242 -2.229075602798
0.062057288067766 0.9999999808852 -2.249718685845
0.062632074521987 0.9999999804356 -2.270552884061
0.063212184758125 0.9999999799803 -2.291579964865
0.063797668086063 0.9999999795119 -2.312801712193
0.064388574272405 0.9999999790321 -2.334219926007
0.064984953544700 0.9999999785377 -2.355836424892
0.065586856595715 0.9999999780393 -2.377653041819
0.066194334587744 0.9999999775238 -2.399671627804
0.066807439156957 0.9999999769949 -2.421894050192
0.067426222417784 0.9999999764566 -2.444322194604
0.068050736967353 0.9999999759078 -2.466957963388
0.068681035889954 0.9999999753377 -2.489803276261
0.069317172761555 0.9999999747621 -2.512860071119
0.069959201654354 0.9999999741699 -2.536130303623
0.070607177141378 0.9999999735679 -2.559615947274
0.071261154301118 0.9999999729517 -2.583318993732
0.071921188722213 0.9999999723089 -2.607241452891
0.072587336508173 0.9999999716634 -2.631385353767
0.073259654282153 0.9999999710032 -2.655752743107
0.073938199191759 0.9999999703236 -2.680345688070
0.074623028913912 0.9999999696244 -2.705166273040
0.075314201659745 0.9999999689141 -2.730216602637
0.076011776179554 0.9999999681877 -2.755498800726
0.076715811767794 0.9999999674429 -2.781015010003
0.077426368268113 0.9999999666815 -2.806767394758
0.078143506078446 0.9999999658983 -2.832758136630
0.078867286156142 0.9999999651051 -2.858989439889
0.079597770023151 0.9999999642876 -2.885463526790
0.080335019771248 0.9999999634455 -2.912182641995
0.081079098067318 0.9999999625924 -2.939149049882
0.081830068158675 0.9999999617180 -2.966365035023
0.082587993878443 0.9999999608208 -2.993832904285
0.083352939650983 0.9999999599032 -3.021554985076
0.084124970497362 0.9999999589625 -3.049533626348
0.084904152040888 0.9999999580029 -3.077771198180
0.085690550512684 0.9999999570243 -3.106270093676
0.086484232757318 0.9999999560130 -3.135032726520
0.087285266238485 0.9999999549856 -3.164061533355
0.088093719044741 0.9999999539303 -3.193358973289
0.088909659895293 0.9999999528542 -3.222927527431
0.089733158145836 0.9999999517488 -3.252769700062
0.090564283794454 0.9999999506140 -3.282888018818
0.091403107487563 0.9999999494635 -3.313285033912
0.092249700525923 0.9999999482778 -3.343963319293
0.093104134870692 0.9999999470691 -3.374925472715
0.093966483149548 0.9999999458302 -3.406174115114
0.094836818662860 0.9999999445640 -3.437711892132
0.095715215389920 0.9999999432636 -3.469541473826
0.096601747995228 0.9999999419365 -3.501665553667
0.097496491834842 0.9999999405770 -3.534086851292
0.098399522962783 0.9999999391864 -3.566808110091
0.099310918137499 0.9999999377660 -3.599832099581
0.100230754828388 0.9999999363060 -3.633161613404
0.101159111222384 0.9999999348130 -3.666799472717
0.102096066230606 0.9999999332899 -3.700748522112
0.103041699495060 0.9999999317307 -3.735011634512
0.103996091395413 0.9999999301329 -3.769591707779
0.104959323055824 0.9999999284990 -3.804491666400
0.105931476351838 0.9999999268278 -3.839714462807
0.106912633917349 0.9999999251138 -3.875263074875
0.107902879151620 0.9999999233605 -3.911140508828
0.108902296226374 0.9999999215679 -3.947349797953
0.109910970092951 0.9999999197330 -3.983894003352
0.110928986489524 0.9999999178563 -4.020776214158
0.111956431948389 0.9999999159315 -4.057999547838
0.112993393803324 0.9999999139691 -4.095567150165
0.114039960197005 0.9999999119558 -4.133482195923
0.115096220088505 0.9999999098980 -4.171747888962
0.116162263260852 0.9999999077869 -4.210367461887
0.117238180328661 0.9999999056292 -4.249344176959
0.118324062745839 0.9999999034249 -4.288681326844
0.119420002813355 0.9999999011622 -4.328382233642
0.120526093687086 0.9999998988543 -4.368450249955
0.121642429385738 0.9999998964867 -4.408888759465
0.122769104798837 0.9999998940658 -4.449701175399
0.123906215694793 0.9999998915904 -4.490890943659
0.125053858729041 0.9999998890507 -4.532461540475
0.126212131452256 0.9999998864576 -4.574416474361
0.127381132318649 0.9999998838015 -4.616759285098
0.128560960694331 0.9999998810882 -4.659493546140
0.129751716865760 0.9999998783050 -4.702622861481
0.130953502048268 0.9999998754593 -4.746150869843
0.132166418394662 0.9999998725457 -4.790081241346
0.133390569003908 0.9999998695665 -4.834417680752
0.134626057929893 0.9999998665178 -4.879163926407
0.135872990190273 0.9999998633966 -4.924323749549
0.137131471775396 0.9999998602022 -4.969900957061
0.138401609657315 0.9999998569317 -5.015899389190
0.139683511798876 0.9999998535882 -5.062322922181
0.140977287162898 0.9999998501659 -5.109175466723
0.142283045721437 0.9999998466635 -5.156460969277
0.143600898465128 0.9999998430789 -5.204183411701
0.144930957412623 0.9999998394102 -5.252346812573
0.146273335620115 0.9999998356558 -5.300955226487
0.147628147190941 0.9999998318156 -5.350012744889
0.148995507285287 0.9999998278833 -5.399523495978
0.150375532129976 0.9999998238625 -5.449491645860
0.151768339028342 0.9999998197451 -5.499921397961
0.153174046370210 0.9999998155314 -5.550816993651
0.154592773641950 0.9999998112222 -5.602182713153
0.156024641436639 0.9999998068083 -5.654022874502
0.157469771464311 0.9999998022932 -5.706341835623
0.158928286562300 0.9999997976751 -5.759143993126
0.160400310705684 0.9999997929465 -5.812433783654
0.161885969017822 0.9999997881101 -5.866215683436
0.163385387780988 0.9999997831574 -5.920494209575
0.164898694447109 0.9999997780896 -5.975273919823
0.166426017648593 0.9999997729059 -6.030559412396
0.167967487209268 0.9999997675986 -6.086355327372
0.169523234155414 0.9999997621697 -6.142666346485
0.171093390726904 0.9999997566133 -6.199497193394
0.172678090388438 0.9999997509294 -6.256852634489
0.174277467840894 0.9999997451105 -6.314737478552
0.175891659032776 0.9999997391579 -6.373156578037
0.177520801171766 0.9999997330637 -6.432114828102
0.179165032736393 0.9999997268310 -6.491617168671
0.180824493487798 0.9999997204501 -6.551668583462
0.182499324481618 0.9999997139211 -6.612274100746
0.184189668079974 0.9999997072388 -6.673438793846
0.185895667963571 0.9999997004031 -6.735167781551
0.187617469143915 0.9999996934101 -6.797466228074
0.189355217975632 0.9999996862466 -6.860339344358
0.191109062168916 0.9999996789211 -6.923792386970
0.192879150802081 0.9999996714236 -6.987830660189
0.194665634334229 0.9999996637534 -7.052459514614
0.196468664618047 0.9999996559019 -7.117684349463
0.198288394912710 0.9999996478691 -7.183510611095
0.200124979896907 0.9999996396505 -7.249943794773
0.201978575681991 0.9999996312380 -7.316989444539
0.203849339825249 0.9999996226314 -7.384653153524
0.205737431343294 0.9999996138203 -7.452940564448
0.207643010725580 0.9999996048079 -7.521857369960
0.209566239948046 0.9999995955844 -7.591409313169
0.211507282486883 0.9999995861452 -7.661602187999
0.213466303332428 0.9999995764891 -7.732441839583
0.215443469003192 0.9999995666044 -7.803934164390
0.217438947560011 0.9999995564921 -7.876085111216
0.219452908620335 0.9999995461434 -7.948900681117
0.221485523372639 0.9999995355532 -8.022386928107
0.223536964590983 0.9999995247174 -8.096549959142
0.225607406649689 0.9999995136295 -8.171395935090
0.227697025538171 0.9999995022838 -8.246931070966
0.229805998875889 0.9999994906730 -8.323161635857
0.231934505927446 0.9999994787941 -8.400093954180
0.234082727617833 0.9999994666360 -8.477734405554
0.236250846547798 0.9999994541966 -8.556089425071
0.238439047009376 0.9999994414682 -8.635165504555
0.240647515001546 0.9999994284426 -8.714969191784
0.242876438246049 0.9999994151150 -8.795507092144
0.245126006203338 0.9999994014777 -8.876785868097
0.247396410088685 0.9999993875207 -8.958812240092
0.249687842888436 0.9999993732424 -9.041592987032
0.252000499376413 0.9999993586310 -9.125134946299
0.254334576130469 0.9999993436789 -9.209445014529
0.256690271549199 0.9999993283813 -9.294530148303
0.259067785868805 0.9999993127275 -9.380397363724
0.261467321180113 0.9999992967088 -9.467053737810
0.263889081445755 0.9999992803184 -9.554506408315
0.266333272517502 0.9999992635478 -9.642762574263
0.268800102153765 0.9999992463869 -9.731829496592
0.271289780037251 0.9999992288274 -9.821714498533
0.273802517792790 0.9999992108597 -9.912424965785
0.276338529005321 0.9999991924759 -10.00396834738
0.278898029238049 0.9999991736637 -10.09635215579
0.281481236050763 0.9999991544163 -10.18958396752
0.284088369018335 0.9999991347213 -10.28367142331
0.286719649749382 0.9999991145695 -10.37862222908
0.289375301905100 0.9999990939498 -10.47444415586
0.292055551218279 0.9999990728513 -10.57114504036
0.294760625512491 0.9999990512648 -10.66873278576
0.297490754721449 0.9999990291755 -10.76721536143
0.300246170908560 0.9999990065753 -10.86660080439
0.303027108286645 0.9999989834499 -10.96689721849
0.305833803237848 0.9999989597874 -11.06811277597
0.308666494333732 0.9999989355792 -11.17025571734
0.311525422355554 0.9999989108069 -11.27333435184
0.314410830314732 0.9999988854628 -11.37735705792
0.317322963473503 0.9999988595313 -11.48233228364
0.320262069365771 0.9999988329971 -11.58826854756
0.323228397818143 0.9999988058493 -11.69517443824
0.326222200971173 0.9999987780724 -11.80305861524
0.329243733300783 0.9999987496533 -11.91192980998
0.332293251639903 0.9999987205740 -12.02179682505
0.335371015200299 0.9999986908239 -12.13266853566
0.338477285594604 0.9999986603833 -12.24455388934
0.341612326858559 0.9999986292378 -12.35746190692
0.344776405473452 0.9999985973733 -12.47140168258
0.347969790388775 0.9999985647713 -12.58638238425
0.351192753045079 0.9999985314150 -12.70241325425
0.354445567397050 0.9999984972879 -12.81950360947
0.357728509936794 0.9999984623711 -12.93766284178
0.361041859717340 0.9999984266463 -13.05690041868
0.364385898376361 0.9999983900968 -13.17722588330
0.367760910160110 0.9999983527023 -13.29864885514
0.371167181947583 0.9999983144451 -13.42117903019
0.374605003274906 0.9999982753022 -13.54482618142
0.378074666359942 0.9999982352572 -13.66960015900
0.381576466127132 0.9999981942870 -13.79551089100
0.385110700232564 0.9999981523718 -13.92256838341
0.388677669089274 0.9999981094882 -14.05078272066
0.392277675892779 0.9999980656154 -14.18016406583
0.395911026646853 0.9999980207308 -14.31072266111
0.399578030189534 0.9999979748109 -14.44246882810
0.403278998219378 0.9999979278332 -14.57541296812
0.407014245321951 0.9999978797727 -14.70956556254
0.410784088996572 0.9999978306039 -14.84493717295
0.414588849683299 0.9999977803030 -14.98153844173
0.418428850790166 0.9999977288431 -15.11938009214
0.422304418720675 0.9999976761981 -15.25847292854
0.426215882901540 0.9999976223423 -15.39882783690
0.430163575810687 0.9999975672459 -15.54045578484
0.434147833005517 0.9999975108828 -15.68336782201
0.438168993151427 0.9999974532230 -15.82757508026
0.442227398050598 0.9999973942372 -15.97308877382
0.446323392671048 0.9999973338960 -16.11992019978
0.450457325175954 0.9999972721681 -16.26808073797
0.454629546953249 0.9999972090228 -16.41758185114
0.458840412645485 0.9999971444257 -16.56843508570
0.463090280179983 0.9999970783474 -16.72065207101
0.467379510799255 0.9999970107520 -16.87424452025
0.471708469091711 0.9999969416049 -17.02922423037
0.476077523022646 0.9999968708725 -17.18560308196
0.480487043965522 0.9999967985178 -17.34339303971
0.484937406733533 0.9999967245055 -17.50260615214
0.489428989611463 0.9999966487970 -17.66325455221
0.493962174387842 0.9999965713556 -17.82535045673
0.498537346387399 0.9999964921403 -17.98890616696
0.503154894503815 0.9999964111114 -18.15393406821
0.507815211232777 0.9999963282298 -18.32044663024
0.512518692705343 0.9999962434524 -18.48845640699
0.517265738721612 0.9999961567350 -18.65797603652
0.522056752784708 0.9999960680380 -18.82901824116
0.526892142135078 0.9999959773156 -19.00159582731
0.531772317785107 0.9999958845205 -19.17572168534
0.536697694554058 0.9999957896084 -19.35140878959
0.541668691103326 0.9999956925304 -19.52867019814
0.546685729972029 0.9999955932387 -19.70751905252
0.551749237612924 0.9999954916840 -19.88796857791
0.556859644428652 0.9999953878154 -20.07003208255
0.562017384808330 0.9999952815812 -20.25372295768
0.567222897164466 0.9999951729290 -20.43905467730
0.572476623970230 0.9999950618050 -20.62604079773
0.577779011797062 0.9999949481536 -20.81469495754
0.583130511352634 0.9999948319193 -21.00503087700
0.588531577519157 0.9999947130434 -21.19706235787
0.593982669392048 0.9999945914685 -21.39080328280
0.599484250318953 0.9999944671347 -21.58626761519
0.605036787939134 0.9999943399809 -21.78346939845
0.610640754223216 0.9999942099433 -21.98242275560
0.616296625513307 0.9999940769601 -22.18314188886
0.622004882563484 0.9999939409643 -22.38564107901
0.627766010580663 0.9999938018910 -22.58993468469
0.633580499265838 0.9999936596706 -22.79603714193
0.639448842855707 0.9999935142361 -23.00396296350
0.645371540164683 0.9999933655154 -23.21372673803
0.651349094627294 0.9999932134359 -23.42534312943
0.657382014340972 0.9999930579239 -23.63882687607
0.663470812109249 0.9999928989043 -23.85419279002
0.669616005485336 0.9999927363015 -24.07145575603
0.675818116816125 0.9999925700356 -24.29063073082
0.682077673286583 0.9999924000261 -24.51173274205
0.688395206964564 0.9999922261933 -24.73477688730
0.694771254846038 0.9999920484523 -24.95977833319
0.701206358900733 0.9999918667180 -25.18675231418
0.707701066118204 0.9999916809034 -25.41571413137
0.714255928554328 0.9999914909204 -25.64667915168
0.720871503378229 0.9999912966793 -25.87966280625
0.727548352919638 0.9999910980860 -26.11468058941
0.734287044716692 0.9999908950480 -26.35174805728
0.741088151564173 0.9999906874682 -26.59088082650
0.747952251562198 0.9999904752492 -26.83209457269
0.754879928165360 0.9999902582900 -27.07540502910
0.761871770232316 0.9999900364898 -27.32082798505
0.768928372075848 0.9999898097440 -27.56837928439
0.776050333513374 0.9999895779465 -27.81807482383
0.783238259917937 0.9999893409889 -28.06993055130
0.790492762269660 0.9999890987617 -28.32396246411
0.797814457207680 0.9999888511510 -28.58018660741
0.805203967082565 0.9999885980437 -28.83861907205
0.812661920009212 0.9999883393208 -29.09927599284
0.820188949920238 0.9999880748636 -29.36217354648
0.827785696619866 0.9999878045512 -29.62732794960
0.835452805838305 0.9999875282596 -29.89475545681
0.843190929286645 0.9999872458612 -30.16447235802
0.851000724712244 0.9999869572280 -30.43649497691
0.858882855954644 0.9999866622282 -30.71083966814
0.866837993001997 0.9999863607279 -30.98752281521
0.874866812048011 0.9999860525909 -31.26656082809
0.882969995549429 0.9999857376778 -31.54797014054
0.891148232284040 0.9999854158468 -31.83176720775
0.899402217409225 0.9999850869533 -32.11796850367
0.907732652521043 0.9999847508508 -32.40659051830
0.916140245713872 0.9999844073891 -32.69764975493
0.924625711640595 0.9999840564153 -32.99116272743
0.933189771573345 0.9999836977740 -33.28714595722
0.941833153464817 0.9999833313058 -33.58561597039
0.950556592010141 0.9999829568512 -33.88658929470
0.959360828709336 0.9999825742440 -34.19008245638
0.968246611930334 0.9999821833172 -34.49611197712
0.977214696972595 0.9999817839010 -34.80469437064
0.986265846131305 0.9999813758213 -35.11584613955
0.995400828762175 0.9999809589012 -35.42958377188
1.004620421346840 0.9999805329613 -35.74592373770
1.013925407558840 0.9999800978179 -36.06488248553
1.023316578330270 0.9999796532849 -36.38647643881
1.032794731918980 0.9999791991727 -36.71072199219
1.042360673976430 0.9999787352879 -37.03763550792
1.052015217616180 0.9999782614341 -37.36723331183
1.061759183483020 0.9999777774111 -37.69953168980
1.071593399822700 0.9999772830159 -38.03454688353
1.081518702552310 0.9999767780414 -38.37229508667
1.091535935331420 0.9999762622769 -38.71279244080
1.101645949633680 0.9999757355086 -39.05605503133
1.111849604819300 0.9999751975178 -39.40209888315
1.122147768208010 0.9999746480840 -39.75093995652
1.132541315152840 0.9999740869815 -40.10259414280
1.143031129114510 0.9999735139813 -40.45707725999
1.153618101736510 0.9999729288503 -40.81440504838
1.164303132920900 0.9999723313518 -41.17459316605
1.175087130904840 0.9999717212454 -41.53765718433
1.185971012337700 0.9999710982862 -41.90361258333
1.196955702359070 0.9999704622255 -42.27247474718
1.208042134677360 0.9999698128110 -42.64425895945
1.219231251649140 0.9999691497855 -43.01898039848
1.230524004359290 0.9999684728886 -43.39665413258
1.241921352701810 0.9999677818549 -43.77729511519
1.253424265461430 0.9999670764154 -44.16091818031
1.265033720395930 0.9999663562962 -44.54753803740
1.276750704319300 0.9999656212199 -44.93716926669
1.288576213185550 0.9999648709041 -45.32982631427
1.300511252173440 0.9999641050630 -45.72552348709
1.312556835771870 0.9999633234051 -46.12427494828
1.324713987866150 0.9999625256354 -46.52609471206
1.336983741824980 0.9999617114539 -46.93099663887
1.349367140588340 0.9999608805564 -47.33899443056
1.361865236756110 0.9999600326339 -47.75010162539
1.374479092677570 0.9999591673734 -48.16433159324
1.387209780541650 0.9999582844566 -48.58169753070
1.400058382468130 0.9999573835602 -49.00221245633
1.413025990599570 0.9999564643574 -49.42588920578
1.426113707194160 0.9999555265156 -49.85274042718
1.439322644719440 0.9999545696978 -50.28277857634
1.452653925946820 0.9999535935621 -50.71601591222
1.466108684047020 0.9999525977621 -51.15246449228
1.479688062686430 0.9999515819459 -51.59213616811
1.493393216124290 0.9999505457568 -52.03504258095
1.507225309310790 0.9999494888335 -52.48119515747
1.521185517986140 0.9999484108093 -52.93060510550
1.535275028780460 0.9999473113125 -53.38328340995
1.549495039314670 0.9999461899664 -53.83924082902
1.563846758302290 0.9999450463889 -54.29848789013
1.578331405652160 0.9999438801930 -54.76103488640
1.592950212572160 0.9999426909866 -55.22689187320
1.607704421673860 0.9999414783716 -55.69606866463
1.622595287078130 0.9999402419455 -56.16857483049
1.637624074521730 0.9999389812997 -56.64441969324
1.652792061464940 0.9999376960206 -57.12361232534
1.668100537200100 0.9999363856887 -57.60616154657
1.683550802961240 0.9999350498797 -58.09207592194
1.699144172034670 0.9999336881628 -58.58136375942
1.714881969870580 0.9999323001022 -59.07403310828
1.730765534195770 0.9999308852562 -59.57009175756
1.746796215127290 0.9999294431775 -60.06954723491
1.762975375287250 0.9999279734128 -60.57240680562
1.779304389918620 0.9999264755026 -61.07867747211
1.795784647002140 0.9999249489822 -61.58836597366
1.812417547374280 0.9999233933800 -62.10147878666
1.829204504846340 0.9999218082190 -62.61802212500
1.846146946324590 0.9999201930157 -63.13800194114
1.863246311931610 0.9999185472799 -63.66142392735
1.880504055128630 0.9999168705158 -64.18829351756
1.897921642839150 0.9999151622202 -64.71861588962
1.915500555573580 0.9999134218841 -65.25239596794
1.933242287555090 0.9999116489912 -65.78963842687
1.951148346846670 0.9999098430184 -66.33034769431
1.969220255479220 0.9999080034363 -66.87452795609
1.987459549581030 0.9999061297074 -67.42218316083
2.005867779508290 0.9999042212875 -67.97331702538
2.024446509976860 0.9999022776248 -68.52793304087
2.043197320195320 0.9999002981600 -69.08603447948
2.062121803999200 0.9998982823259 -69.64762440184
2.081221569986390 0.9998962295475 -70.21270566493
2.100498241653970 0.9998941392416 -70.78128093108
2.119953457536130 0.9998920108164 -71.35335267734
2.139588871343480 0.9998898436718 -71.92892320586
2.159406152103620 0.9998876371989 -72.50799465491
2.179406984303010 0.9998853907794 -73.09056901089
2.199593068030130 0.9998831037855 -73.67664812098
2.219966119120010 0.9998807755804 -74.26623370694
2.240527869300080 0.9998784055168 -74.85932737960
2.261280066337340 0.9998759929372 -75.45593065441
2.282224474186960 0.9998735371733 -76.05604496794
2.303362873142190 0.9998710375464 -76.65967169544
2.324697059985710 0.9998684933656 -77.26681216933
2.346228848142330 0.9998659039286 -77.87746769895
2.367960067833140 0.9998632685208 -78.49163959129
2.389892566231110 0.9998605864150 -79.10932917289