! Sonnet Data File
! From: em Version : 18.56
! From Project: N3000_0o1-100exp_nd_nadap
! Data is De-embedded 
! Data File Written: 03/09/2023 16:29:52
!< HDATE 03/04/2023 10:23:07
!< MDATE 03/04/2023 10:23:07
# GHZ S MA R 50.00000
0.100000000000000 0.9999999258204 -4.018824637090
0.100230600763241 0.9999999253979 -4.028086865238
0.100461733293603 0.9999999249668 -4.037370415514
0.100693398817343 0.9999999245081 -4.046675337523
0.100925598563550 0.9999999240778 -4.056001677779
0.101158333764143 0.9999999236283 -4.065349492060
0.101391605653885 0.9999999231874 -4.074718821993
0.101625415470386 0.9999999227351 -4.084109721397
0.101859764454108 0.9999999222749 -4.093522238885
0.102094653848375 0.9999999218262 -4.102956423553
0.102330084899378 0.9999999213562 -4.112412324981
0.102566058856181 0.9999999209068 -4.121889992583
0.102802576970730 0.9999999204460 -4.131389477882
0.103039640497856 0.9999999199809 -4.140910832725
0.103277250695285 0.9999999195017 -4.150454100170
0.103515408823643 0.9999999190360 -4.160019336446
0.103754116146463 0.9999999185689 -4.169606590622
0.103993373930191 0.9999999180819 -4.179215913877
0.104233183444194 0.9999999176112 -4.188847355435
0.104473545960767 0.9999999171264 -4.198500965978
0.104714462755138 0.9999999166436 -4.208176797000
0.104955935105475 0.9999999161687 -4.217874899986
0.105197964292896 0.9999999156733 -4.227595325935
0.105440551601469 0.9999999151714 -4.237338124536
0.105683698318228 0.9999999146653 -4.247103348404
0.105927405733172 0.9999999141756 -4.256891048521
0.106171675139274 0.9999999136716 -4.266701276192
0.106416507832491 0.9999999131641 -4.276534083206
0.106661905111768 0.9999999126524 -4.286389522483
0.106907868279043 0.9999999121428 -4.296267643690
0.107154398639260 0.9999999116325 -4.306168500227
0.107401497500369 0.9999999111272 -4.316092144516
0.107649166173337 0.9999999105949 -4.326038629135
0.107897405972156 0.9999999100534 -4.336008005358
0.108146218213845 0.9999999095510 -4.346000324454
0.108395604218463 0.9999999090003 -4.356015642567
0.108645565309111 0.9999999084851 -4.366054007542
0.108896102811941 0.9999999079564 -4.376115478277
0.109147218056166 0.9999999074085 -4.386200103259
0.109398912374060 0.9999999068621 -4.396307936336
0.109651187100972 0.9999999063172 -4.406439032326
0.109904043575330 0.9999999057779 -4.416593442467
0.110157483138648 0.9999999052266 -4.426771221569
0.110411507135533 0.9999999046703 -4.436972423134
0.110666116913694 0.9999999041097 -4.447197098386
0.110921313823946 0.9999999035535 -4.457445305209
0.111177099220222 0.9999999029816 -4.467717094004
0.111433474459573 0.9999999024133 -4.478012521018
0.111690440902183 0.9999999018585 -4.488331640381
0.111947999911371 0.9999999012796 -4.498674505894
0.112206152853600 0.9999999006886 -4.509041172163
0.112464901098484 0.9999999001168 -4.519431691027
0.112724246018796 0.9999998995287 -4.529846120173
0.112984188990473 0.9999998989349 -4.540284515332
0.113244731392627 0.9999998983447 -4.550746929464
0.113505874607549 0.9999998977595 -4.561233417639
0.113767620020718 0.9999998971558 -4.571744033296
0.114029969020807 0.9999998965564 -4.582278836534
0.114292922999693 0.9999998959492 -4.592837878425
0.114556483352461 0.9999998953399 -4.603421216291
0.114820651477414 0.9999998947256 -4.614028905909
0.115085428776080 0.9999998941107 -4.624661001991
0.115350816653217 0.9999998934872 -4.635317561276
0.115616816516824 0.9999998928716 -4.645998640336
0.115883429778147 0.9999998922432 -4.656704292810
0.116150657851686 0.9999998916162 -4.667434578673
0.116418502155202 0.9999998909857 -4.678189551633
0.116686964109726 0.9999998903375 -4.688969269459
0.116956045139566 0.9999998897035 -4.699773788776
0.117225746672315 0.9999998890588 -4.710603164740
0.117496070138856 0.9999998884064 -4.721457455751
0.117767016973375 0.9999998877582 -4.732336719067
0.118038588613362 0.9999998871051 -4.743241012266
0.118310786499624 0.9999998864421 -4.754170390560
0.118583612076289 0.9999998857698 -4.765124913547
0.118857066790816 0.9999998850969 -4.776104637160
0.119131152094002 0.9999998844375 -4.787109620903
0.119405869439989 0.9999998837582 -4.798139920454
0.119681220286272 0.9999998830817 -4.809195596441
0.119957206093709 0.9999998823883 -4.820276704287
0.120233828326524 0.9999998817133 -4.831383302739
0.120511088452319 0.9999998810107 -4.842515451189
0.120788987942080 0.9999998803201 -4.853673208616
0.121067528270186 0.9999998796104 -4.864856632855
0.121346710914415 0.9999998789036 -4.876065781816
0.121626537355952 0.9999998782110 -4.887300715027
0.121907009079398 0.9999998774949 -4.898561490549
0.122188127572780 0.9999998767782 -4.909848171066
0.122469894327553 0.9999998760566 -4.921160810725
0.122752310838613 0.9999998753299 -4.932499473580
0.123035378604304 0.9999998746055 -4.943864214819
0.123319099126422 0.9999998738690 -4.955255098564
0.123603473910230 0.9999998731297 -4.966672182105
0.123888504464460 0.9999998723868 -4.978115525648
0.124174192301323 0.9999998716319 -4.989585189639
0.124460538936518 0.9999998708912 -5.001081232808
0.124747545889240 0.9999998701484 -5.012603718512
0.125035214682186 0.9999998693730 -5.024152704412
0.125323546841563 0.9999998686217 -5.035728253688
0.125612543897101 0.9999998678535 -5.047330424636
0.125902207382054 0.9999998670604 -5.058959279772
0.126192538833215 0.9999998662943 -5.070614879492
0.126483539790918 0.9999998655098 -5.082297284348
0.126775211799051 0.9999998647345 -5.094006556507
0.127067556405060 0.9999998639408 -5.105742757400
0.127360575159962 0.9999998631443 -5.117505949264
0.127654269618350 0.9999998623421 -5.129296191644
0.127948641338400 0.9999998615321 -5.141113547736
0.128243691881883 0.9999998607343 -5.152958081785
0.128539422814171 0.9999998599123 -5.164829852991
0.128835835704247 0.9999998591056 -5.176728924689
0.129132932124709 0.9999998582773 -5.188655358176
0.129430713651784 0.9999998574426 -5.200609217015
0.129729181865334 0.9999998566119 -5.212590563870
0.130028338348862 0.9999998557737 -5.224599461721
0.130328184689525 0.9999998549217 -5.236635974269
0.130628722478137 0.9999998540811 -5.248700161962
0.130929953309184 0.9999998532313 -5.260792090679
0.131231878780827 0.9999998523752 -5.272911822962
0.131534500494911 0.9999998515155 -5.285059422809
0.131837820056978 0.9999998506293 -5.297234953556
0.132141839076270 0.9999998497615 -5.309438478858
0.132446559165741 0.9999998488842 -5.321670062201
0.132751981942064 0.9999998479998 -5.333929768846
0.133058109025641 0.9999998471154 -5.346217663236
0.133364942040608 0.9999998462162 -5.358533808262
0.133672482614850 0.9999998453283 -5.370878270381
0.133980732380004 0.9999998444284 -5.383251113277
0.134289692971468 0.9999998435101 -5.395652401360
0.134599366028415 0.9999998425985 -5.408082200329
0.134909753193794 0.9999998416764 -5.420540574331
0.135220856114346 0.9999998407465 -5.433027589617
0.135532676440607 0.9999998398173 -5.445543311454
0.135845215826921 0.9999998388832 -5.458087805913
0.136158475931444 0.9999998379392 -5.470661138324
0.136472458416160 0.9999998370037 -5.483263374171
0.136787164946882 0.9999998360455 -5.495894579497
0.137102597193266 0.9999998350853 -5.508554822286
0.137418756828817 0.9999998341152 -5.521244165721
0.137735645530901 0.9999998331514 -5.533962678497
0.138053264980750 0.9999998321838 -5.546710427028
0.138371616863476 0.9999998311932 -5.559487476091
0.138690702868072 0.9999998302087 -5.572293896144
0.139010524687431 0.9999998292245 -5.585129751213
0.139331084018346 0.9999998282244 -5.597995109460
0.139652382561524 0.9999998272084 -5.610890039282
0.139974422021596 0.9999998262027 -5.623814606547
0.140297204107120 0.9999998251903 -5.636768880767
0.140620730530597 0.9999998241681 -5.649752927141
0.140945003008476 0.9999998231447 -5.662766816137
0.141270023261164 0.9999998221108 -5.675810615128
0.141595793013036 0.9999998210744 -5.688884391474
0.141922313992442 0.9999998200215 -5.701988213908
0.142249587931718 0.9999998189745 -5.715122153263
0.142577616567196 0.9999998179191 -5.728286275003
0.142906401639211 0.9999998168538 -5.741480651241
0.143235944892112 0.9999998157811 -5.754705347093
0.143566248074269 0.9999998147010 -5.767960435463
0.143897312938085 0.9999998136185 -5.781245982991
0.144229141240004 0.9999998125363 -5.794562060772
0.144561734740520 0.9999998114428 -5.807908738674
0.144895095204187 0.9999998103395 -5.821286085577
0.145229224399627 0.9999998092280 -5.834694170759
0.145564124099542 0.9999998081187 -5.848133066165
0.145899796080721 0.9999998069999 -5.861602841537
0.146236242124050 0.9999998058705 -5.875103566524
0.146573464014524 0.9999998047301 -5.888635313771
0.146911463541250 0.9999998035922 -5.902198151117
0.147250242497466 0.9999998024516 -5.915792150534
0.147589802680539 0.9999998012968 -5.929417384306
0.147930145891987 0.9999998001286 -5.943073922594
0.148271273937478 0.9999997989735 -5.956761837254
0.148613188626845 0.9999997977813 -5.970481198993
0.148955891774096 0.9999997966178 -5.984232080698
0.149299385197420 0.9999997954250 -5.998014553621
0.149643670719200 0.9999997942265 -6.011828689976
0.149988750166021 0.9999997930221 -6.025674561073
0.150334625368680 0.9999997918219 -6.039552241212
0.150681298162196 0.9999997905977 -6.053461800460
0.151028770385820 0.9999997893792 -6.067403313258
0.151377043883043 0.9999997881477 -6.081376851921
0.151726120501610 0.9999997869069 -6.095382489483
0.152076002093523 0.9999997856684 -6.109420298641
0.152426690515057 0.9999997844185 -6.123490354760
0.152778187626769 0.9999997831493 -6.137592727913
0.153130495293502 0.9999997818921 -6.151727494819
0.153483615384404 0.9999997806077 -6.165894728125
0.153837549772931 0.9999997793339 -6.180094500382
0.154192300336859 0.9999997780514 -6.194326887946
0.154547868958295 0.9999997767518 -6.208591964074
0.154904257523686 0.9999997754449 -6.222889804039
0.155261467923829 0.9999997741381 -6.237220481315
0.155619502053881 0.9999997728164 -6.251584070825
0.155978361813370 0.9999997714906 -6.265980649344
0.156338049106203 0.9999997701594 -6.280410288358
0.156698565840678 0.9999997688092 -6.294873067132
0.157059913929495 0.9999997674640 -6.309369059234
0.157422095289762 0.9999997661068 -6.323898341062
0.157785111843011 0.9999997647401 -6.338460987048
0.158148965515202 0.9999997633579 -6.353057073643
0.158513658236739 0.9999997619931 -6.367686677607
0.158879191942474 0.9999997605964 -6.382349875442
0.159245568571725 0.9999997591973 -6.397046742986
0.159612790068279 0.9999997577912 -6.411777357688
0.159980858380408 0.9999997563799 -6.426541794382
0.160349775460873 0.9999997549530 -6.441340132274
0.160719543266941 0.9999997535365 -6.456172447387
0.161090163760393 0.9999997520874 -6.471038818247
0.161461638907531 0.9999997506356 -6.485939320117
0.161833970679194 0.9999997491809 -6.500874033522
0.162207161050764 0.9999997477229 -6.515843033452
0.162581212002179 0.9999997462492 -6.530846399914
0.162956125517943 0.9999997447732 -6.545884210465
0.163331903587136 0.9999997432809 -6.560956543214
0.163708548203424 0.9999997417707 -6.576063477555
0.164086061365072 0.9999997402754 -6.591205090836
0.164464445074953 0.9999997387528 -6.606381463066
0.164843701340556 0.9999997372336 -6.621592672779
0.165223832174003 0.9999997356963 -6.636838799793
0.165604839592053 0.9999997341573 -6.652119923094
0.165986725616116 0.9999997326078 -6.667436122468
0.166369492272266 0.9999997310392 -6.682787476952
0.166753141591247 0.9999997294728 -6.698174067027
0.167137675608485 0.9999997278871 -6.713595972915
0.167523096364102 0.9999997263176 -6.729053275226
0.167909405902923 0.9999997247157 -6.744546053581
0.168296606274489 0.9999997231000 -6.760074389205
0.168684699533068 0.9999997214841 -6.775638362254
0.169073687737662 0.9999997198639 -6.791238054325
0.169463572952025 0.9999997182212 -6.806873547485
0.169854357244669 0.9999997165775 -6.822544921269
0.170246042688874 0.9999997149325 -6.838252259008
0.170638631362702 0.9999997132642 -6.853995640364
0.171032125349009 0.9999997115917 -6.869775148794
0.171426526735452 0.9999997099097 -6.885590866602
0.171821837614502 0.9999997082115 -6.901442874858
0.172218060083456 0.9999997065148 -6.917331256153
0.172615196244448 0.9999997048019 -6.933256093468
0.173013248204458 0.9999997030831 -6.949217470657
0.173412218075326 0.9999997013491 -6.965215468878
0.173812107973761 0.9999996996029 -6.981250171622
0.174212920021355 0.9999996978503 -6.997321663906
0.174614656344589 0.9999996960897 -7.013430027643
0.175017319074851 0.9999996943256 -7.029575347404
0.175420910348442 0.9999996925358 -7.045757705958
0.175825432306590 0.9999996907485 -7.061977188404
0.176230887095462 0.9999996889426 -7.078233879825
0.176637276866171 0.9999996871286 -7.094527862201
0.177044603774793 0.9999996852900 -7.110859222115
0.177452869982375 0.9999996834609 -7.127228043617
0.177862077654948 0.9999996816196 -7.143634411385
0.178272228963537 0.9999996797674 -7.160078413159
0.178683326084174 0.9999996778945 -7.176560130577
0.179095371197909 0.9999996760170 -7.193079651825
0.179508366490821 0.9999996741191 -7.209637061583
0.179922314154031 0.9999996722212 -7.226232446697
0.180337216383712 0.9999996703136 -7.242865892291
0.180753075381101 0.9999996683930 -7.259537484443
0.181169893352512 0.9999996664548 -7.276247311234
0.181587672509346 0.9999996645068 -7.292995457726
0.182006415068105 0.9999996625546 -7.309782012120
0.182426123250400 0.9999996605824 -7.326607061625
0.182846799282967 0.9999996586000 -7.343470692210
0.183268445397676 0.9999996566166 -7.360372991040
0.183691063831543 0.9999996546076 -7.377314048582
0.184114656826745 0.9999996525926 -7.394293948064
0.184539226630627 0.9999996505696 -7.411312782828
0.184964775495716 0.9999996485340 -7.428370637761
0.185391305679737 0.9999996464825 -7.445467602429
0.185818819445618 0.9999996444164 -7.462603764594
0.186247319061505 0.9999996423460 -7.479779213776
0.186676806800778 0.9999996402620 -7.496994039636
0.187107284942055 0.9999996381644 -7.514248328893
0.187538755769211 0.9999996360661 -7.531542174973
0.187971221571388 0.9999996339333 -7.548875662519
0.188404684643006 0.9999996317949 -7.566248886530
0.188839147283775 0.9999996296542 -7.583661933390
0.189274611798710 0.9999996274959 -7.601114893669
0.189711080498140 0.9999996253229 -7.618607859297
0.190148555697722 0.9999996231369 -7.636140919177
0.190587039718453 0.9999996209365 -7.653714165429
0.191026534886683 0.9999996187342 -7.671327687882
0.191467043534125 0.9999996165093 -7.688981578446
0.191908567997870 0.9999996142701 -7.706675929006
0.192351110620398 0.9999996120306 -7.724410829639
0.192794673749592 0.9999996097574 -7.742186373800
0.193239259738747 0.9999996074920 -7.760002652002
0.193684870946587 0.9999996051971 -7.777859756758
0.194131509737273 0.9999996029009 -7.795757781690
0.194579178480419 0.9999996005846 -7.813696817395
0.195027879551103 0.9999995982625 -7.831676957767
0.195477615329881 0.9999995959211 -7.849698295377
0.195928388202798 0.9999995935608 -7.867760923256
0.196380200561400 0.9999995911906 -7.885864936109
0.196833054802749 0.9999995888094 -7.904010426993
0.197286953329436 0.9999995864116 -7.922197488617
0.197741898549589 0.9999995840062 -7.940426215280
0.198197892876892 0.9999995815794 -7.958696702551
0.198654938730594 0.9999995791425 -7.977009043137
0.199113038535524 0.9999995766834 -7.995363331415
0.199572194722100 0.9999995742171 -8.013759664088
0.200032409726346 0.9999995717446 -8.032198134911
0.200493685989905 0.9999995692443 -8.050678839799
0.200956025960048 0.9999995667350 -8.069201872776
0.201419432089692 0.9999995642103 -8.087767329941
0.201883906837407 0.9999995616727 -8.106375308908
0.202349452667435 0.9999995591182 -8.125025903934
0.202816072049701 0.9999995565452 -8.143719210953
0.203283767459824 0.9999995539710 -8.162455328298
0.203752541379132 0.9999995513644 -8.181234351354
0.204222396294675 0.9999995487541 -8.200056376695
0.204693334699241 0.9999995461220 -8.218921502562
0.205165359091361 0.9999995434763 -8.237829823766
0.205638471975333 0.9999995408209 -8.256781441728
0.206112675861226 0.9999995381456 -8.275776451521
0.206587973264899 0.9999995354559 -8.294814950698
0.207064366708012 0.9999995327502 -8.313897039209
0.207541858718042 0.9999995300277 -8.333022813817
0.208020451828291 0.9999995272891 -8.352192373680
0.208500148577905 0.9999995245305 -8.371405817601
0.208980951511885 0.9999995217714 -8.390663245567
0.209462863181100 0.9999995189787 -8.409964755343
0.209945886142303 0.9999995161744 -8.429310445313
0.210430022958140 0.9999995133555 -8.448700418117
0.210915276197171 0.9999995105276 -8.468134771748
0.211401648433874 0.9999995076766 -8.487613606756
0.211889142248667 0.9999995048038 -8.507137022607
0.212377760227918 0.9999995019264 -8.526705121079
0.212867504963958 0.9999994990202 -8.546318001568
0.213358379055098 0.9999994961064 -8.565975765866
0.213850385105638 0.9999994931712 -8.585678515407
0.214343525725886 0.9999994902236 -8.605426349080
0.214837803532169 0.9999994872500 -8.625219372295
0.215333221146845 0.9999994842625 -8.645057684197
0.215829781198321 0.9999994812562 -8.664941387050
0.216327486321067 0.9999994782367 -8.684870584298
0.216826339155624 0.9999994752018 -8.704845376676
0.217326342348625 0.9999994721460 -8.724865868608
0.217827498552805 0.9999994690763 -8.744932162297
0.218329810427018 0.9999994659803 -8.765044359422
0.218833280636246 0.9999994628746 -8.785202565106
0.219337911851619 0.9999994597431 -8.805406882898
0.219843706750426 0.9999994565987 -8.825657415338
0.220350668016131 0.9999994534334 -8.845954267517
0.220858798338383 0.9999994502553 -8.866297541738
0.221368100413037 0.9999994470594 -8.886687345607
0.221878576942162 0.9999994438326 -8.907123780622
0.222390230634060 0.9999994405871 -8.927606953420
0.222903064203276 0.9999994373397 -8.948136969389
0.223417080370617 0.9999994340681 -8.968713932336
0.223932281863163 0.9999994307732 -8.989337949834
0.224448671414283 0.9999994274595 -9.010009125694
0.224966251763650 0.9999994241255 -9.030727566520
0.225485025657252 0.9999994207671 -9.051493378791
0.226004995847412 0.9999994174044 -9.072306669194
0.226526165092800 0.9999994140173 -9.093167543641
0.227048536158445 0.9999994106011 -9.114076110596
0.227572111815755 0.9999994071697 -9.135032475325
0.228096894842526 0.9999994037240 -9.156036745317
0.228622888022963 0.9999994002473 -9.177089028911
0.229150094147688 0.9999993967634 -9.198189433673
0.229678516013761 0.9999993932484 -9.219338068747
0.230208156424690 0.9999993897155 -9.240535039752
0.230739018190449 0.9999993861644 -9.261780458092
0.231271104127492 0.9999993825959 -9.283074430759
0.231804417058766 0.9999993789986 -9.304417066073
0.232338959813731 0.9999993753905 -9.325808476115
0.232874735228368 0.9999993717557 -9.347248767583
0.233411746145201 0.9999993681032 -9.368738051254
0.233949995413307 0.9999993644223 -9.390276436485
0.234489485888333 0.9999993607284 -9.411864034046
0.235030220432512 0.9999993570106 -9.433500953606
0.235572201914677 0.9999993532646 -9.455187306168
0.236115433210277 0.9999993495015 -9.476923202441
0.236659917201390 0.9999993457199 -9.498708753819
0.237205656776743 0.9999993419145 -9.520544070030
0.237752654831721 0.9999993380816 -9.542429264558
0.238300914268390 0.9999993342297 -9.564364448975
0.238850437995504 0.9999993303602 -9.586349734406
0.239401228928527 0.9999993264656 -9.608385233541
0.239953289989645 0.9999993225456 -9.630471057811
0.240506624107784 0.9999993186112 -9.652607321509
0.241061234218622 0.9999993146443 -9.674794136210
0.241617123264609 0.9999993106545 -9.697031615218
0.242174294194979 0.9999993066460 -9.719319873485
0.242732749965767 0.9999993026169 -9.741659023326
0.243292493539825 0.9999992985598 -9.764049178947
0.243853527886836 0.9999992944752 -9.786490453692
0.244415855983334 0.9999992903760 -9.808982963040
0.244979480812714 0.9999992862502 -9.831526820879
0.245544405365253 0.9999992820989 -9.854122142421
0.246110632638122 0.9999992779284 -9.876769042826
0.246678165635403 0.9999992737268 -9.899467637040
0.247247007368108 0.9999992695017 -9.922218041005
0.247817160854190 0.9999992652584 -9.945020369964
0.248388629118563 0.9999992609853 -9.967874740886
0.248961415193115 0.9999992566825 -9.990781268905
0.249535522116727 0.9999992523660 -10.01374007201
0.250110952935286 0.9999992480218 -10.03675126556
0.250687710701705 0.9999992436429 -10.05981496701
0.251265798475935 0.9999992392566 -10.08293129413
0.251845219324985 0.9999992348261 -10.10610036289
0.252425976322935 0.9999992303773 -10.12932229401
0.253008072550955 0.9999992259064 -10.15259720295
0.253591511097320 0.9999992214079 -10.17592520812
0.254176295057425 0.9999992168824 -10.19930642924
0.254762427533806 0.9999992123272 -10.22274098323
0.255349911636151 0.9999992077464 -10.24622899124
0.255938750481320 0.9999992031437 -10.26977057159
0.256528947193361 0.9999991985111 -10.29336584306
0.257120504903523 0.9999991938523 -10.31701492603
0.257713426750281 0.9999991891624 -10.34071794077
0.258307715879342 0.9999991844556 -10.36447500601
0.258903375443671 0.9999991797200 -10.38828624432
0.259500408603502 0.9999991749525 -10.41215177497
0.260098818526356 0.9999991701547 -10.43607171991
0.260698608387059 0.9999991653297 -10.46004619860
0.261299781367759 0.9999991604777 -10.48407533449
0.261902340657941 0.9999991556066 -10.50815924846
0.262506289454445 0.9999991507032 -10.53229806216
0.263111630961484 0.9999991457650 -10.55649189816
0.263718368390657 0.9999991408011 -10.58074087994
0.264326504960974 0.9999991358072 -10.60504512835
0.264936043898863 0.9999991307880 -10.62940476739
0.265546988438195 0.9999991257431 -10.65381992009
0.266159341820298 0.9999991206576 -10.67829071051
0.266773107293973 0.9999991155481 -10.70281726074
0.267388288115516 0.9999991104121 -10.72739969620
0.268004887548728 0.9999991052401 -10.75203814207
0.268622908864939 0.9999991000465 -10.77673272047
0.269242355343023 0.9999990948198 -10.80148355752
0.269863230269413 0.9999990895617 -10.82629077740
0.270485536938122 0.9999990842690 -10.85115450689
0.271109278650758 0.9999990789505 -10.87607487044
0.271734458716545 0.9999990736085 -10.90105199382
0.272361080452335 0.9999990682268 -10.92608600379
0.272989147182630 0.9999990628113 -10.95117702521
0.273618662239599 0.9999990573691 -10.97632518597
0.274249628963095 0.9999990518937 -11.00153061194
0.274882050700670 0.9999990463884 -11.02679343098
0.275515930807599 0.9999990408552 -11.05211376988
0.276151272646893 0.9999990352771 -11.07749175679
0.276788079589317 0.9999990296802 -11.10292751938
0.277426355013411 0.9999990240450 -11.12842118565
0.278066102305504 0.9999990183778 -11.15397288436
0.278707324859736 0.9999990126858 -11.17958274268
0.279350026078072 0.9999990069440 -11.20525089088
0.279994209370323 0.9999990011795 -11.23097745770
0.280639878154162 0.9999989953826 -11.25676257266
0.281287035855145 0.9999989895491 -11.28260636599
0.281935685906726 0.9999989836886 -11.30850896620
0.282585831750277 0.9999989777824 -11.33447050512
0.283237476835105 0.9999989718528 -11.36049111166
0.283890624618472 0.9999989658792 -11.38657091796
0.284545278565612 0.9999989598793 -11.41271005375
0.285201442149752 0.9999989538411 -11.43890865149
0.285859118852124 0.9999989477677 -11.46516684168
0.286518312161992 0.9999989416642 -11.49148475690
0.287179025576664 0.9999989355220 -11.51786252839
0.287841262601513 0.9999989293452 -11.54430028988
0.288505026749995 0.9999989231334 -11.57079817208
0.289170321543670 0.9999989168801 -11.59735630907
0.289837150512217 0.9999989105937 -11.62397483364
0.290505517193455 0.9999989042746 -11.65065387861
0.291175425133362 0.9999988979144 -11.67739357984
0.291846877886090 0.9999988915224 -11.70419406815
0.292519879013991 0.9999988850880 -11.73105547992
0.293194432087630 0.9999988786232 -11.75797794942
0.293870540685805 0.9999988721164 -11.78496161032
0.294548208395568 0.9999988655712 -11.81200659831
0.295227438812242 0.9999988589900 -11.83911304858
0.295908235539441 0.9999988523742 -11.86628109669
0.296590602189089 0.9999988457158 -11.89351087704
0.297274542381438 0.9999988390163 -11.92080252863
0.297960059745092 0.9999988322864 -11.94815618587
0.298647157917019 0.9999988255078 -11.97557198574
0.299335840542574 0.9999988186998 -12.00305006528
0.300026111275520 0.9999988118416 -12.03059056099
0.300717973778044 0.9999988049510 -12.05819361126
0.301411431720780 0.9999987980261 -12.08585935344
0.302106488782825 0.9999987910530 -12.11358792543
0.302803148651760 0.9999987840418 -12.14137946525
0.303501415023669 0.9999987769925 -12.16923411161
0.304201291603162 0.9999987698960 -12.19715200389
0.304902782103389 0.9999987627654 -12.22513328087
0.305605890246063 0.9999987555897 -12.25317808105
0.306310619761481 0.9999987483751 -12.28128654433
0.307016974388540 0.9999987411218 -12.30945881280
0.307724957874761 0.9999987338158 -12.33769502339
0.308434573976304 0.9999987264839 -12.36599531811
0.309145826457993 0.9999987190911 -12.39435983790
0.309858719093334 0.9999987116652 -12.42278872335
0.310573255664533 0.9999987042005 -12.45128211613
0.311289439962519 0.9999986966907 -12.47984015744
0.312007275786962 0.9999986891316 -12.50846298952
0.312726766946295 0.9999986815388 -12.53715075398
0.313447917257733 0.9999986738962 -12.56590359336
0.314170730547293 0.9999986662130 -12.59472165013
0.314895210649816 0.9999986584767 -12.62360506822
0.315621361408985 0.9999986507008 -12.65255398973
0.316349186677347 0.9999986428822 -12.68156855871
0.317078690316332 0.9999986350189 -12.71064891900
0.317809876196277 0.9999986271071 -12.73979521463
0.318542748196442 0.9999986191485 -12.76900759004
0.319277310205033 0.9999986111518 -12.79828618933
0.320013566119222 0.9999986031066 -12.82763115794
0.320751519845169 0.9999985950119 -12.85704264123
0.321491175298040 0.9999985868713 -12.88652078395
0.322232536402031 0.9999985786855 -12.91606573232
0.322975607090385 0.9999985704485 -12.94567763245
0.323720391305419 0.9999985621667 -12.97535663099
0.324466892998537 0.9999985538375 -13.00510287389
0.325215116130257 0.9999985454576 -13.03491650806
0.325965064670229 0.9999985370357 -13.06479768125
0.326716742597259 0.9999985285634 -13.09474654058
0.327470153899325 0.9999985200370 -13.12476323399
0.328225302573605 0.9999985114694 -13.15484790901
0.328982192626491 0.9999985028459 -13.18500071377
0.329740828073615 0.9999984941770 -13.21522179844
0.330501212939871 0.9999984854543 -13.24551131033
0.331263351259432 0.9999984766851 -13.27586939905
0.332027247075775 0.9999984678644 -13.30629621434
0.332792904441701 0.9999984589926 -13.33679190538
0.333560327419357 0.9999984500724 -13.36735662338
0.334329520080256 0.9999984410917 -13.39799051713
0.335100486505302 0.9999984320694 -13.42869373746
0.335873230784809 0.9999984229936 -13.45946643662
0.336647757018522 0.9999984138632 -13.49030876443
0.337424069315641 0.9999984046812 -13.52122087311
0.338202171794843 0.9999983954480 -13.55220291345
0.338982068584300 0.9999983861598 -13.58325503902
0.339763763821707 0.9999983768152 -13.61437740063
0.340547261654297 0.9999983674222 -13.64557015175
0.341332566238869 0.9999983579692 -13.67683344535
0.342119681741807 0.9999983484664 -13.70816743356
0.342908612339103 0.9999983389085 -13.73957227138
0.343699362216377 0.9999983292970 -13.77104811211
0.344491935568903 0.9999983196260 -13.80259510844
0.345286336601630 0.9999983099019 -13.83421341662
0.346082569529201 0.9999983001258 -13.86590319035
0.346880638575981 0.9999982902875 -13.89766458422
0.347680547976073 0.9999982803947 -13.92949775510
0.348482301973348 0.9999982704481 -13.96140285634
0.349285904821459 0.9999982604402 -13.99338004513
0.350091360783872 0.9999982503783 -14.02542947703
0.350898674133881 0.9999982402557 -14.05755130893
0.351707849154637 0.9999982300768 -14.08974569705
0.352518890139168 0.9999982198381 -14.12201279805
0.353331801390398 0.9999982095411 -14.15435277025
0.354146587221179 0.9999981991874 -14.18676577027
0.354963251954304 0.9999981887701 -14.21925195597
0.355781799922537 0.9999981782999 -14.25181148644
0.356602235468632 0.9999981677605 -14.28444451898
0.357424562945358 0.9999981571651 -14.31715121303
0.358248786715522 0.9999981465078 -14.34993172731
0.359074911151991 0.9999981357907 -14.38278622135
0.359902940637715 0.9999981250141 -14.41571485457
0.360732879565754 0.9999981141735 -14.44871778627
0.361564732339295 0.9999981032717 -14.48179517844
0.362398503371680 0.9999980923019 -14.51494719018
0.363234197086430 0.9999980812789 -14.54817398152
0.364071817917265 0.9999980701843 -14.58147571590
0.364911370308129 0.9999980590310 -14.61485255271
0.365752858713214 0.9999980478071 -14.64830465430
0.366596287596983 0.9999980365238 -14.68183218243
0.367441661434196 0.9999980251793 -14.71543529972
0.368288984709930 0.9999980137624 -14.74911416841
0.369138261919605 0.9999980022802 -14.78286895194
0.369989497569007 0.9999979907395 -14.81669981266
0.370842696174314 0.9999979791294 -14.85060691453
0.371697862262117 0.9999979674482 -14.88459042104
0.372555000369445 0.9999979557046 -14.91865049632
0.373414115043790 0.9999979438954 -14.95278730449
0.374275210843132 0.9999979320150 -14.98700101037
0.375138292335959 0.9999979200701 -15.02129177956
0.376003364101296 0.9999979080530 -15.05565977605
0.376870430728727 0.9999978959716 -15.09010516642
0.377739496818418 0.9999978838165 -15.12462811554
0.378610566981145 0.9999978715902 -15.15922879012
0.379483645838316 0.9999978593005 -15.19390735658
0.380358738021995 0.9999978469330 -15.22866398204
0.381235848174929 0.9999978344983 -15.26349883250
0.382114980950570 0.9999978219930 -15.29841207585
0.382996141013101 0.9999978094183 -15.33340387956
0.383879333037462 0.9999977967691 -15.36847441125
0.384764561709372 0.9999977840468 -15.40362384017
0.385651831725356 0.9999977712472 -15.43885233365
0.386541147792769 0.9999977583780 -15.47416006153
0.387432514629821 0.9999977454412 -15.50954719166
0.388325936965602 0.9999977324250 -15.54501389418
0.389221419540109 0.9999977193350 -15.58056033959
0.390118967104267 0.9999977061701 -15.61618669613
0.391018584419958 0.9999976929294 -15.65189313555
0.391920276260046 0.9999976796127 -15.68767982783
0.392824047408399 0.9999976662219 -15.72354694364